ITEM: TIMESTEP
750000
ITEM: NUMBER OF ATOMS
538
ITEM: BOX BOUNDS mm mm mm
-2.4e-06 0.0240024
-7.5e-06 0.0750075
-5e-06 0.050005
ITEM: ATOMS v_x1 v_y1 v_z1 v_rad1 
0.000101736 4.5527e-05 0.000116574 1.6575e-05 
4.11763e-05 4.38242e-05 0.000108755 8.755e-06 
6.39128e-05 2.13942e-05 0.000121393 2.1395e-05 
3.10525e-05 6.62064e-05 0.000116573 1.6575e-05 
6.77967e-06 7.42964e-05 0.00010678 6.78e-06 
6.87007e-05 6.5176e-05 0.000121393 2.1395e-05 
2.17412e-05 3.44754e-05 0.000106779 6.78e-06 
4.21464e-05 7.70773e-06 0.000107705 7.705e-06 
7.70487e-06 5.98713e-05 0.000107704 7.705e-06 
2.20531e-05 1.45878e-05 0.000114587 1.45885e-05 
5.65779e-05 4.43452e-05 0.00010678 6.78e-06 
3.88506e-05 2.75604e-05 0.000107705 7.705e-06 
7.94358e-05 4.18493e-05 0.000107704 7.705e-06 
7.70465e-06 3.01997e-05 0.000107704 7.705e-06 
7.70469e-06 7.70481e-06 0.000130199 7.705e-06 
1.18706e-05 4.50355e-05 0.000107705 7.705e-06 
2.61836e-05 9.9446e-06 0.00013832 9.945e-06 
8.7549e-06 3.12502e-05 0.000124096 8.755e-06 
2.70014e-05 4.67216e-05 0.000105965 5.965e-06 
2.51234e-05 4.09015e-05 0.000121844 9.945e-06 
4.39962e-05 4.57245e-05 0.000130356 1.1301e-05 
8.3073e-05 4.14514e-05 0.000133208 8.755e-06 
9.94439e-06 7.2846e-05 0.000131189 9.945e-06 
3.47996e-05 2.66234e-05 0.000131749 9.945e-06 
9.85846e-05 1.45878e-05 0.000114587 1.45885e-05 
7.70487e-06 5.18687e-05 0.000120873 7.705e-06 
0.000102105 7.51273e-05 0.000125221 9.945e-06 
2.16504e-05 5.2766e-05 0.000135874 8.755e-06 
8.79312e-05 8.75474e-06 0.000134522 8.755e-06 
0.000114717 9.94482e-06 0.000132477 9.945e-06 
7.70469e-06 4.41798e-05 0.000134227 7.705e-06 
9.58212e-05 6.88821e-05 0.000108754 8.755e-06 
0.000113964 6.79215e-05 0.000137756 8.755e-06 
0.000120307 5.70393e-05 0.00012716 7.705e-06 
0.000120473 5.81642e-05 0.000107704 7.705e-06 
0.000125901 1.28393e-05 0.000112839 1.284e-05 
0.000152108 6.18041e-05 0.0001113 1.1301e-05 
0.000225249 3.67472e-05 0.000114587 1.45885e-05 
0.000165856 4.01151e-05 0.000114588 1.45885e-05 
0.000198257 4.31338e-05 0.000112839 1.284e-05 
0.000228699 1.13005e-05 0.0001113 1.1301e-05 
0.000145119 7.70447e-06 0.000107704 7.705e-06 
0.000160635 1.95652e-05 0.000107704 7.705e-06 
0.000208968 8.75494e-06 0.000108754 8.755e-06 
0.000214219 5.65676e-05 0.00010678 6.78e-06 
0.000167376 6.7791e-06 0.00010678 6.78e-06 
0.000186179 1.65745e-05 0.000116574 1.6575e-05 
0.0002287 7.95106e-05 0.0001113 1.1301e-05 
0.000172159 7.49497e-05 0.00011411 1.284e-05 
0.000181634 5.62986e-05 0.000108754 8.755e-06 
0.000228699 6.56213e-05 0.00012913 1.1301e-05 
0.000134748 4.06418e-05 0.000116574 1.6575e-05 
0.000199226 7.0489e-05 0.000114588 1.45885e-05 
0.000230055 1.91524e-05 0.000130994 9.945e-06 
0.000231227 5.86919e-05 0.000108755 8.755e-06 
0.000230055 4.58732e-05 0.000136847 9.945e-06 
0.000213002 5.42077e-05 0.000124075 8.755e-06 
0.000150852 1.62859e-05 0.000127464 1.45885e-05 
0.0002146 8.75485e-06 0.000125333 8.755e-06 
0.000129656 8.04351e-05 0.00011883 1.88315e-05 
0.000200681 9.94485e-06 0.000137764 9.945e-06 
9.0389e-05 9.02449e-05 0.000112839 1.284e-05 
4.54763e-05 0.000121526 0.000112839 1.284e-05 
7.87355e-05 0.000141682 0.000121393 2.1395e-05 
6.38119e-05 8.87628e-05 0.000106779 6.78e-06 
4.21226e-05 0.00015051 0.000116573 1.6575e-05 
0.000111503 0.000108172 0.000114587 1.45885e-05 
4.46694e-05 9.41662e-05 0.000114587 1.45885e-05 
1.13003e-05 0.000118057 0.0001113 1.1301e-05 
1.45881e-05 9.25899e-05 0.000114587 1.45885e-05 
8.37559e-05 0.000118122 0.00010678 6.78e-06 
7.70474e-06 0.00013637 0.000107704 7.705e-06 
1.96269e-05 0.000159135 0.000108754 8.755e-06 
9.70841e-05 0.000123718 0.000107704 7.705e-06 
1.13008e-05 0.000147421 0.000122743 1.1301e-05 
6.90116e-05 0.000106684 0.000112839 1.284e-05 
0.000102879 9.31307e-05 0.000130217 8.755e-06 
6.77982e-06 0.000129969 0.000124129 6.78e-06 
2.88163e-05 0.000108885 0.000126159 9.945e-06 
8.84379e-05 0.000109827 0.000129337 1.284e-05 
0.000114368 0.000132091 0.000109944 9.945e-06 
2.53076e-05 0.000129781 0.00012461 1.1301e-05 
5.9865e-05 0.000118261 0.000130201 9.945e-06 
2.78028e-05 0.000171524 0.000127991 1.1301e-05 
0.000106242 8.03995e-05 0.00010678 6.78e-06 
4.45778e-05 0.000130474 0.000133774 9.945e-06 
0.000106578 0.000150393 0.000109944 9.945e-06 
5.26983e-06 0.00014949 0.00010525 5.25e-06 
7.70486e-06 0.000162734 0.000133409 7.705e-06 
0.000112584 0.00014214 0.000125613 8.755e-06 
0.000185047 0.000108927 0.000118322 5.965e-06 
0.000155029 9.0698e-05 0.000109944 9.945e-06 
0.000167394 9.43357e-05 0.000125093 9.945e-06 
0.000173182 0.000154552 0.000112839 1.284e-05 
0.000142145 0.000113488 0.000116574 1.6575e-05 
0.00020626 0.000107392 0.000109944 9.945e-06 
0.000151517 0.000164411 0.000108754 8.755e-06 
0.00018753 9.33503e-05 0.0001113 1.1301e-05 
0.000218777 0.000127974 0.000114587 1.45885e-05 
0.000190166 0.000110656 0.000106779 6.78e-06 
0.000211484 8.94777e-05 0.000108754 8.755e-06 
0.00016934 0.000110378 0.0001113 1.1301e-05 
0.000228681 0.000103207 0.0001113 1.1301e-05 
0.00020412 0.000157709 0.00011883 1.88315e-05 
0.000158998 0.000146528 0.000127007 8.755e-06 
0.000185826 0.000130066 0.000114587 1.45885e-05 
0.000160429 0.000133857 0.0001113 1.1301e-05 
0.000230055 0.000140195 0.000132623 9.945e-06 
0.000125108 0.00010408 0.000134588 9.945e-06 
0.0001432 0.000157686 0.0001366 7.705e-06 
0.000201133 0.000113542 0.000133132 1.45885e-05 
0.000231245 0.000146826 0.000108754 8.755e-06 
0.000150516 0.000131962 0.000131747 8.755e-06 
0.000232295 0.000154869 0.000123076 7.705e-06 
0.0001498 9.44528e-05 0.000131428 8.755e-06 
0.000135921 0.000146047 0.000116574 1.6575e-05 
0.000230056 0.000166447 0.000109944 9.945e-06 
8.75429e-06 0.000175663 0.000123276 8.755e-06 
6.30916e-05 0.000166306 0.000109944 9.945e-06 
0.000100475 0.000167746 0.000133342 1.45885e-05 
7.70481e-06 0.000170434 0.000107704 7.705e-06 
6.30586e-05 0.000238802 0.000114587 1.45885e-05 
3.15381e-05 0.000197871 0.000109944 9.945e-06 
8.25906e-05 0.000244152 0.000106779 6.78e-06 
1.28397e-05 0.000215589 0.000112839 1.284e-05 
6.98686e-05 0.000212751 0.000108754 8.755e-06 
4.07418e-05 0.000222952 0.000112839 1.284e-05 
1.13007e-05 0.000191547 0.0001113 1.1301e-05 
2.38648e-05 0.000176124 0.000108754 8.755e-06 
5.29966e-05 0.000202212 0.0001113 1.1301e-05 
9.96062e-05 0.000200911 0.000107704 7.705e-06 
0.000104285 0.000185166 0.000108754 8.755e-06 
2.76089e-05 0.000230145 0.0001337 1.284e-05 
8.98418e-05 0.000164837 0.000107705 7.705e-06 
7.70477e-06 0.000234808 0.000107704 7.705e-06 
6.09905e-05 0.000216574 0.000124761 9.945e-06 
2.96088e-05 0.000208592 0.000126585 9.945e-06 
7.8847e-05 0.000188686 0.00011883 1.88315e-05 
4.47889e-05 0.000179563 0.000112839 1.284e-05 
9.29256e-05 0.000224056 0.00011883 1.88315e-05 
4.65049e-05 0.000194893 0.000133369 1.284e-05 
9.94451e-06 0.000240885 0.000124122 9.945e-06 
5.72403e-05 0.000170096 0.000126159 7.705e-06 
4.47881e-05 0.00021598 0.000131736 7.705e-06 
4.71531e-05 0.000233732 0.000127926 6.78e-06 
0.000104674 0.00024579 0.000125579 6.78e-06 
8.05089e-05 0.0002463 0.00012626 7.705e-06 
0.000110558 0.000244989 0.000109944 9.945e-06 
2.92118e-05 0.000245897 0.000112839 1.284e-05 
0.000120448 0.000234072 0.00012591 1.1301e-05 
0.000122637 0.000228398 0.00010678 6.78e-06 
8.75388e-06 0.000251471 0.000108754 8.755e-06 
0.000118605 0.000169528 0.000112839 1.284e-05 
0.00015868 0.00016863 0.000128684 1.284e-05 
0.000121763 0.00018576 0.000125029 7.705e-06 
0.000133109 0.000168068 0.00012877 8.755e-06 
0.000170872 0.000180114 0.0001113 1.1301e-05 
0.000139643 0.000222111 0.000109944 9.945e-06 
0.000149993 0.000240399 0.000109944 9.945e-06 
0.000231212 0.000226974 0.000108755 8.755e-06 
0.000194372 0.000187242 0.000112839 1.284e-05 
0.00012033 0.000205404 0.000114587 1.45885e-05 
0.000153017 0.000226974 0.000126129 1.1301e-05 
0.000181919 0.000218495 0.000107703 7.705e-06 
0.000169712 0.00023261 0.0001113 1.1301e-05 
0.000185658 0.000170741 0.000106779 6.78e-06 
0.000233333 0.000212658 0.000105965 5.965e-06 
0.000223277 0.000191213 0.000116574 1.6575e-05 
0.000141428 0.000184637 0.000114587 1.45885e-05 
0.000155038 0.000212615 0.000107705 7.705e-06 
0.000159829 0.000195173 0.000107704 7.705e-06 
0.000205766 0.000221902 0.00011883 1.88315e-05 
0.000145182 0.000207573 0.000122443 9.945e-06 
0.000231245 0.000170359 0.000128541 8.755e-06 
0.000140199 0.000204489 0.000106779 6.78e-06 
0.000173144 0.000204685 0.000128592 1.88315e-05 
0.000132934 0.000219745 0.000126097 7.705e-06 
0.000176765 0.000258332 0.000127543 8.755e-06 
0.000181442 0.00023344 0.000128994 9.945e-06 
0.000231246 0.000213592 0.000125361 8.755e-06 
0.000230055 0.000231344 0.000131117 9.945e-06 
9.3624e-05 0.000264291 0.000116574 1.6575e-05 
9.45994e-05 0.00028687 0.000107704 7.705e-06 
7.47113e-05 0.000286515 0.000112839 1.284e-05 
8.67541e-05 0.000322052 0.0001113 1.1301e-05 
1.32012e-05 0.00032053 0.000112839 1.284e-05 
3.42114e-05 0.000271084 0.000112839 1.284e-05 
9.94463e-06 0.000270094 0.000109944 9.945e-06 
5.35082e-05 0.000286304 0.000108754 8.755e-06 
6.11588e-05 0.000312352 0.000116574 1.6575e-05 
5.93666e-05 0.000265924 0.000112839 1.284e-05 
0.000107565 0.000313234 0.0001113 1.1301e-05 
8.8898e-05 0.000302275 0.000108754 8.755e-06 
1.65737e-05 0.000292776 0.000121979 1.6575e-05 
4.61413e-05 0.000253122 0.000130744 1.284e-05 
3.94738e-05 0.000298603 0.000109944 9.945e-06 
4.95576e-05 0.000282003 0.00012794 1.1301e-05 
1.70236e-05 0.000260614 0.00012759 1.1301e-05 
3.31061e-05 0.000311957 0.00012138 8.755e-06 
7.14648e-05 0.000261483 0.000133251 1.1301e-05 
7.45375e-05 0.00025506 0.000106779 6.78e-06 
7.7047e-06 0.000274955 0.00013588 7.705e-06 
2.14013e-05 0.00033605 0.000117211 5.25e-06 
3.4961e-05 0.000326635 0.000109944 9.945e-06 
9.32619e-05 0.000292972 0.000122932 8.755e-06 
5.96481e-06 0.000311783 0.00012783 5.965e-06 
0.000124532 0.000313488 0.00012847 1.284e-05 
0.000117187 0.000287608 0.000116574 1.6575e-05 
7.64699e-05 0.000334048 0.000121861 7.705e-06 
7.04846e-05 0.00033294 0.000107704 7.705e-06 
0.000116213 0.000265028 0.000107704 7.705e-06 
8.75474e-06 0.000335964 0.000127272 8.755e-06 
0.000191168 0.000265188 0.000126945 6.78e-06 
0.000122035 0.000305669 0.00010525 5.25e-06 
0.000223426 0.000252505 0.000116573 1.6575e-05 
0.000130419 0.000243921 0.000109944 9.945e-06 
0.000165537 0.000254822 0.0001113 1.1301e-05 
0.000127406 0.000261189 0.000124499 1.284e-05 
0.000201757 0.000260582 0.000119836 6.78e-06 
0.00015116 0.000251003 0.000128317 1.1301e-05 
0.000188591 0.000247829 0.000112839 1.284e-05 
0.000144865 0.000259616 0.000109944 9.945e-06 
0.00015793 0.000274612 0.000109944 9.945e-06 
0.000180512 0.000273697 0.000112839 1.284e-05 
0.00014436 0.000290902 0.0001113 1.1301e-05 
0.00013121 0.000324946 0.000109944 9.945e-06 
0.000225412 0.000314052 0.000114587 1.45885e-05 
0.000200042 0.000263868 0.00010678 6.78e-06 
0.000153162 0.000315025 0.000114587 1.45885e-05 
0.000196265 0.000315371 0.000114587 1.45885e-05 
0.000234009 0.000271616 0.000105965 5.965e-06 
0.000165171 0.000291832 0.000120065 1.1301e-05 
0.000135559 0.000274445 0.000107704 7.705e-06 
0.000184144 0.000292793 0.000119489 7.705e-06 
0.000172836 0.000317949 0.00010678 6.78e-06 
0.00023214 0.000284214 0.00010678 6.78e-06 
0.000209494 0.000284976 0.00011883 1.88315e-05 
0.00013542 0.000306027 0.00010678 6.78e-06 
0.000177232 0.000303181 0.000108754 8.755e-06 
0.000174747 0.000311032 0.000125542 9.945e-06 
0.000143913 0.000273757 0.000120635 7.705e-06 
0.000198162 0.000332523 0.000130307 8.755e-06 
0.000198133 0.000336491 0.000107704 7.705e-06 
0.00023322 0.000331028 0.000124955 6.78e-06 
0.000232296 0.00027322 0.000125614 7.705e-06 
9.94456e-06 0.000342893 0.000109944 9.945e-06 
8.75478e-06 0.000361516 0.000108754 8.755e-06 
2.74457e-05 0.000342447 0.000107704 7.705e-06 
8.75441e-06 0.000379025 0.000108754 8.755e-06 
6.06176e-05 0.000355918 0.00010678 6.78e-06 
0.000114709 0.000406984 0.000121393 2.1395e-05 
7.87154e-05 0.00034969 0.0001113 1.1301e-05 
6.91485e-05 0.000375336 0.000116573 1.6575e-05 
3.88055e-05 0.000361986 0.000116574 1.6575e-05 
6.83059e-05 0.000408475 0.000116573 1.6575e-05 
9.54832e-05 0.000366602 0.000109944 9.945e-06 
3.97194e-05 0.000393072 0.000114587 1.45885e-05 
9.26928e-05 0.00038639 0.000109944 9.945e-06 
1.28397e-05 0.000399833 0.000112839 1.284e-05 
5.26263e-05 0.00033836 0.0001113 1.1301e-05 
1.28397e-05 0.000357053 0.000129483 1.284e-05 
0.000105091 0.000342372 0.000116574 1.6575e-05 
4.88957e-05 0.000380211 0.000135096 1.1301e-05 
4.83014e-05 0.000405309 0.000135726 1.1301e-05 
1.98673e-05 0.000380444 0.000125388 1.1301e-05 
8.72462e-05 0.000400852 0.000105965 5.965e-06 
8.67331e-05 0.000392363 0.000129911 1.1301e-05 
6.23292e-05 0.000351719 0.000122685 8.755e-06 
9.12259e-05 0.000413118 0.00010678 6.78e-06 
0.000129158 0.000343494 0.000108754 8.755e-06 
2.61221e-05 0.000406947 0.000131699 1.1301e-05 
0.000174378 0.000340495 0.00011883 1.88315e-05 
0.000147093 0.000338338 0.000109944 9.945e-06 
0.000212224 0.000334434 0.000118129 9.945e-06 
0.000138967 0.00039163 0.000130602 8.755e-06 
0.000181123 0.000367021 0.000109944 9.945e-06 
0.000230056 0.00033769 0.000109944 9.945e-06 
0.00012814 0.000369153 0.00011883 1.88315e-05 
0.000157033 0.000376861 0.000109944 9.945e-06 
0.000139928 0.000411818 0.000107704 7.705e-06 
0.000196608 0.00038962 0.00011883 1.88315e-05 
0.000203079 0.000357109 0.000114588 1.45885e-05 
0.000232282 0.00040217 0.000107705 7.705e-06 
0.000152863 0.000357413 0.000109944 9.945e-06 
0.000173507 0.000382784 0.000107704 7.705e-06 
0.00022716 0.00038289 0.000112839 1.284e-05 
0.0002287 0.000358848 0.0001113 1.1301e-05 
0.000178538 0.000407867 0.000108754 8.755e-06 
0.00022368 0.000402282 0.000129309 1.284e-05 
0.00014404 0.000393616 0.0001113 1.1301e-05 
0.000162702 0.00039377 0.000107704 7.705e-06 
0.000158868 0.000412035 0.0001113 1.1301e-05 
0.00017063 0.000398567 0.000121307 8.755e-06 
0.000155658 0.000366984 0.000122342 5.965e-06 
0.000143718 0.000409053 0.000122382 7.705e-06 
5.87994e-05 0.000488714 0.000120213 6.78e-06 
3.36571e-05 0.0004993 0.000133711 1.1301e-05 
7.63344e-05 0.000427234 0.000131581 8.755e-06 
3.95824e-05 0.000461831 0.000122377 7.705e-06 
8.74857e-05 0.000483925 0.000125086 8.755e-06 
6.74212e-05 0.000475681 0.000126222 9.945e-06 
9.07248e-05 0.000469753 0.000119553 5.965e-06 
4.70788e-05 0.00043527 0.000128193 1.284e-05 
6.75302e-05 0.000435637 0.000120499 7.705e-06 
2.70553e-05 0.000461838 0.000109944 9.945e-06 
0.000107931 0.00047984 0.000114587 1.45885e-05 
1.39835e-05 0.000454801 0.000123181 9.945e-06 
8.75431e-06 0.000465488 0.000108754 8.755e-06 
1.3239e-05 0.000480576 0.000123537 1.284e-05 
3.73198e-05 0.000444802 0.000109944 9.945e-06 
7.70437e-06 0.000449096 0.000107704 7.705e-06 
7.08544e-05 0.000494094 0.000109944 9.945e-06 
1.73518e-05 0.000428658 0.000116574 1.6575e-05 
0.000113091 0.000447095 0.00011883 1.88315e-05 
8.51926e-05 0.000455633 0.0001113 1.1301e-05 
5.95133e-05 0.000455581 0.000114587 1.45885e-05 
7.97635e-05 0.000476128 0.000109944 9.945e-06 
3.90778e-05 0.000482713 0.000114587 1.45885e-05 
6.12083e-05 0.000478119 0.000108754 8.755e-06 
8.61517e-05 0.000431557 0.000112839 1.284e-05 
5.62562e-05 0.000433214 0.000108754 8.755e-06 
3.13038e-05 0.000424708 0.000136048 7.705e-06 
4.27959e-05 0.000418566 0.0001113 1.1301e-05 
9.94458e-06 0.000418118 0.000139754 9.945e-06 
0.000166589 0.000426367 0.000119168 6.78e-06 
0.000167706 0.000500576 0.000138525 9.945e-06 
0.000184034 0.000482395 0.000126134 7.705e-06 
0.000145865 0.000503226 0.000108755 8.755e-06 
0.000171418 0.000496694 0.000114587 1.45885e-05 
0.000230056 0.000456743 0.000132314 9.945e-06 
0.000134956 0.000487683 0.000127975 1.6575e-05 
0.000164282 0.000454203 0.000126191 7.705e-06 
0.000142999 0.000432798 0.000114588 1.45885e-05 
0.00014438 0.00045864 0.000123673 1.284e-05 
0.000166714 0.000442646 0.0001113 1.1301e-05 
0.000203406 0.000457839 0.000109944 9.945e-06 
0.000195006 0.000429732 0.000121393 2.1395e-05 
0.000223269 0.000447057 0.000112839 1.284e-05 
0.000151386 0.000486225 0.000108754 8.755e-06 
0.000186586 0.000475846 0.000109944 9.945e-06 
0.000129459 0.000469031 0.000109944 9.945e-06 
0.000182614 0.0004627 0.000131806 1.284e-05 
0.000215692 0.000486791 0.000124307 2.4309e-05 
0.000232281 0.000464821 0.000107705 7.705e-06 
0.000164808 0.000469809 0.000112839 1.284e-05 
0.000171595 0.000424056 0.00010678 6.78e-06 
0.00018294 0.000456293 0.000109944 9.945e-06 
0.00022603 0.000434487 0.000135064 1.284e-05 
0.00022716 0.000421674 0.000112839 1.284e-05 
6.14577e-05 0.000572954 0.000106779 6.78e-06 
0.000118562 0.000528949 0.000108754 8.755e-06 
4.20853e-05 0.000533694 0.0001318 9.945e-06 
6.88344e-05 0.00052858 0.000134158 8.755e-06 
1.13007e-05 0.000541388 0.000126915 1.1301e-05 
5.42028e-05 0.00052621 0.000123034 6.78e-06 
8.52153e-05 0.000519717 0.000132487 9.945e-06 
2.53844e-05 0.000528781 0.000128897 7.705e-06 
0.000110988 0.000547251 0.000122704 9.945e-06 
9.94422e-06 0.000520243 0.000128466 9.945e-06 
4.80961e-05 0.00057526 0.000106779 6.78e-06 
3.73209e-05 0.000554969 0.000128405 7.705e-06 
8.89167e-05 0.000541706 0.000128257 1.1301e-05 
0.00010642 0.000525207 0.000126215 1.284e-05 
1.13006e-05 0.000574523 0.000126397 1.1301e-05 
3.10797e-05 0.000543102 0.000112839 1.284e-05 
6.78633e-05 0.000516495 0.000112839 1.284e-05 
4.20343e-05 0.000576725 0.000127216 1.45885e-05 
9.44555e-05 0.000559436 0.000112839 1.284e-05 
1.19246e-05 0.000557715 0.0001113 1.1301e-05 
9.2524e-05 0.000504617 0.000114587 1.45885e-05 
0.000101056 0.000523628 0.00010678 6.78e-06 
6.16357e-05 0.000550356 0.00011883 1.88315e-05 
3.7191e-05 0.000516419 0.000114587 1.45885e-05 
7.67554e-05 0.000571112 0.000108754 8.755e-06 
9.95038e-06 0.000528202 0.000109944 9.945e-06 
0.000101619 0.000539032 0.000108755 8.755e-06 
2.4741e-05 0.000574605 0.000109944 9.945e-06 
8.43537e-05 0.000531949 0.000109944 9.945e-06 
3.91292e-05 0.000562721 0.000108754 8.755e-06 
5.96469e-06 0.000573016 0.000105965 5.965e-06 
6.57253e-05 0.000513497 0.000132119 6.78e-06 
1.284e-05 0.000503918 0.000112839 1.284e-05 
5.35419e-05 0.000503113 0.000127274 9.945e-06 
7.36804e-05 0.000497316 0.000130769 1.1301e-05 
1.13007e-05 0.000500712 0.000136717 1.1301e-05 
5.33162e-05 0.000500538 0.000108754 8.755e-06 
0.000143347 0.000538418 0.000128662 8.755e-06 
0.000148769 0.000577948 0.000135247 5.965e-06 
0.000152087 0.000526641 0.000127406 5.965e-06 
0.000131807 0.000552919 0.000131159 9.945e-06 
0.000227868 0.000570601 0.000120526 1.1301e-05 
0.000140598 0.000585151 0.000125346 8.755e-06 
0.000138658 0.000569113 0.000132681 7.705e-06 
0.000143392 0.000580305 0.000108754 8.755e-06 
0.000126213 0.000533806 0.000127026 8.755e-06 
0.000158881 0.000515502 0.000108754 8.755e-06 
0.000200389 0.000551533 0.00010678 6.78e-06 
0.000167058 0.000540086 0.000107704 7.705e-06 
0.000185502 0.000581584 0.000127418 1.284e-05 
0.000160221 0.000529758 0.000116871 7.705e-06 
0.0001929 0.000510862 0.0001113 1.1301e-05 
0.000175832 0.000570619 0.000109944 9.945e-06 
0.000130645 0.000514721 0.000133211 1.1301e-05 
0.000152398 0.000509392 0.000126722 1.1301e-05 
0.000152907 0.000537138 0.000106779 6.78e-06 
0.000175275 0.000553121 0.000107704 7.705e-06 
0.000201415 0.000520132 0.000132337 1.284e-05 
0.000164388 0.00057551 0.000133456 9.945e-06 
0.000153283 0.000558336 0.000116574 1.6575e-05 
0.00017549 0.000517584 0.000107705 7.705e-06 
0.000220595 0.000541409 0.00011883 1.88315e-05 
0.000193882 0.0005655 0.000108755 8.755e-06 
0.000233221 0.00056015 0.000106779 6.78e-06 
0.000187878 0.000536069 0.000114587 1.45885e-05 
0.000199449 0.000582101 0.000108754 8.755e-06 
0.000139402 0.000524262 0.000112839 1.284e-05 
0.000212191 0.000565688 0.000108755 8.755e-06 
0.000230056 0.000517143 0.000131065 9.945e-06 
0.000128867 0.000545965 0.0001113 1.1301e-05 
0.000120739 0.000572103 0.000116574 1.6575e-05 
0.000186635 0.000502799 0.000132836 9.945e-06 
0.000119713 0.000507776 0.000112839 1.284e-05 
4.57368e-05 0.000665594 0.000126565 7.705e-06 
1.45876e-05 0.000660599 0.000114587 1.45885e-05 
6.77979e-06 0.000646011 0.000128108 6.78e-06 
0.000105215 0.000649999 0.000131127 1.284e-05 
8.53301e-05 0.000663646 0.000130065 1.1301e-05 
5.77078e-05 0.000604783 0.000132573 1.45885e-05 
0.000113535 0.000648934 0.000109944 9.945e-06 
7.49364e-05 0.00062133 0.000126983 9.945e-06 
8.39206e-05 0.000640209 0.000128422 9.945e-06 
1.28394e-05 0.000598272 0.000130444 1.284e-05 
5.72695e-05 0.000630018 0.000129812 9.945e-06 
6.56961e-05 0.000609877 0.000109944 9.945e-06 
1.45883e-05 0.000631423 0.000114587 1.45885e-05 
6.3284e-05 0.000658756 0.000129123 1.1301e-05 
0.000100542 0.000628624 0.000114587 1.45885e-05 
4.06542e-05 0.000647492 0.000114587 1.45885e-05 
3.53118e-05 0.000624037 0.000130967 1.284e-05 
9.06183e-05 0.000594713 0.000121393 2.1395e-05 
6.7341e-05 0.000641403 0.000112839 1.284e-05 
4.92913e-05 0.000623308 0.0001113 1.1301e-05 
3.48988e-05 0.000602041 0.000114587 1.45885e-05 
7.85513e-05 0.000623404 0.000108754 8.755e-06 
9.94465e-06 0.000607785 0.000109944 9.945e-06 
5.75957e-05 0.000590028 0.0001113 1.1301e-05 
8.91609e-05 0.000651644 0.0001113 1.1301e-05 
0.000115583 0.000609807 0.000109944 9.945e-06 
9.94459e-06 0.000587896 0.000109944 9.945e-06 
0.000232295 0.000614343 0.000141505 7.705e-06 
0.000192403 0.000634377 0.000127704 5.965e-06 
0.000144962 0.000651742 0.000134425 9.945e-06 
0.000218774 0.000637753 0.000137702 9.945e-06 
0.000208901 0.000631395 0.000124526 7.705e-06 
0.000162495 0.000657187 0.000142241 5.965e-06 
0.000215633 0.000618487 0.000132207 8.755e-06 
0.000230055 0.000601094 0.00013006 9.945e-06 
0.000177124 0.000664788 0.0001113 1.1301e-05 
0.000194147 0.000664131 0.000126154 1.1301e-05 
0.000127446 0.000661109 0.000123262 1.284e-05 
0.000146842 0.000606294 0.00012152 8.755e-06 
0.000167416 0.000607662 0.000132238 9.945e-06 
0.000198098 0.000644387 0.000112839 1.284e-05 
0.000133646 0.000630369 0.00011883 1.88315e-05 
0.000192627 0.000611224 0.00011883 1.88315e-05 
0.000209696 0.000628225 0.000107704 7.705e-06 
0.000230055 0.000654024 0.000135796 9.945e-06 
0.000171254 0.000642168 0.000127897 1.6575e-05 
0.000231246 0.000626111 0.000130045 8.755e-06 
0.000210334 0.00059455 0.000107705 7.705e-06 
0.000225412 0.000642601 0.000114587 1.45885e-05 
0.000162393 0.000618506 0.000112839 1.284e-05 
0.000180772 0.000632506 0.000107705 7.705e-06 
0.000179695 0.000647472 0.000106778 6.78e-06 
0.000150463 0.000656529 0.000112839 1.284e-05 
0.000132384 0.000596875 0.0001113 1.1301e-05 
0.000184238 0.000588301 0.000107705 7.705e-06 
0.000224502 0.00061494 0.000112839 1.284e-05 
0.000163225 0.000591146 0.000114587 1.45885e-05 
0.000151577 0.000595381 0.000134368 8.755e-06 
0.000214396 0.000602916 0.000140118 8.755e-06 
0.000210708 0.000586431 0.000126666 1.284e-05 
0.0002287 0.000591217 0.0001113 1.1301e-05 
0.000231245 0.000583298 0.000135678 8.755e-06 
0.000101721 0.000694039 0.00012883 1.1301e-05 
0.000119514 0.000697269 0.000112839 1.284e-05 
9.63649e-05 0.000744035 0.000119486 5.965e-06 
6.11693e-05 0.000711318 0.000128707 1.45885e-05 
2.9839e-05 0.00070365 0.000134498 8.755e-06 
0.000106046 0.000741245 0.000108754 8.755e-06 
6.9833e-05 0.000740055 0.000129311 9.945e-06 
2.53659e-05 0.00072591 0.00011883 1.88315e-05 
4.45651e-05 0.000689524 0.000127432 1.284e-05 
7.7682e-05 0.00072641 0.000112839 1.284e-05 
5.88517e-05 0.000692558 0.000109944 9.945e-06 
1.65746e-05 0.000691635 0.000116574 1.6575e-05 
0.000100377 0.000714394 0.000112839 1.284e-05 
2.83008e-05 0.00067146 0.000135712 1.284e-05 
8.96541e-05 0.000742296 0.000107704 7.705e-06 
5.97866e-05 0.000720445 0.000105965 5.965e-06 
7.7051e-06 0.000742295 0.000107705 7.705e-06 
5.43594e-05 0.000737159 0.000112839 1.284e-05 
7.51536e-05 0.000703952 0.000109944 9.945e-06 
3.7113e-05 0.000672929 0.0001113 1.1301e-05 
3.91753e-05 0.000691477 0.000107704 7.705e-06 
4.57873e-05 0.000707687 0.000109944 9.945e-06 
9.20124e-05 0.0006934 0.000109944 9.945e-06 
7.58218e-05 0.000677632 0.000112839 1.284e-05 
5.84712e-05 0.000676811 0.000121961 6.78e-06 
5.68908e-05 0.000665287 0.000109944 9.945e-06 
0.000104076 0.000672548 0.000114587 1.45885e-05 
0.000163118 0.000696976 0.000141046 7.705e-06 
0.000157346 0.000711174 0.000129807 1.1301e-05 
0.000228651 0.000717773 0.00012393 1.1301e-05 
0.00023322 0.00074322 0.000120339 6.78e-06 
0.000233221 0.000714332 0.000106779 6.78e-06 
0.00022708 0.000735819 0.000132539 8.755e-06 
0.00023322 0.000743212 0.000106779 6.78e-06 
0.000167678 0.000733426 0.000116574 1.6575e-05 
0.000132217 0.000700491 0.000128661 7.705e-06 
0.000231245 0.000699052 0.000108754 8.755e-06 
0.000184488 0.000695002 0.000121393 2.1395e-05 
0.000130325 0.000728606 0.000121393 2.1395e-05 
0.000191303 0.000723368 0.000109944 9.945e-06 
0.000232296 0.000728758 0.000107704 7.705e-06 
0.000212946 0.000707542 0.0001113 1.1301e-05 
0.000212164 0.000735412 0.000114588 1.45885e-05 
0.000161657 0.000711008 0.00010678 6.78e-06 
0.000145237 0.000699001 0.000112838 1.284e-05 
0.000221087 0.000675466 0.00011883 1.88315e-05 
0.000153664 0.000684533 0.000130229 1.1301e-05 
0.000124726 0.000677403 0.000107705 7.705e-06 
0.000133389 0.000683091 0.000124046 9.945e-06 
0.000141052 0.000675531 0.000108754 8.755e-06 
0.000158896 0.000680996 0.000109944 9.945e-06 
0.000174937 0.000668124 0.000137373 1.1301e-05 
0.000154812 0.00066634 0.000135604 7.705e-06 
0.000162793 0.000669579 0.000122826 7.705e-06 
