# vtk DataFile Version 4.0
Generated by LIGGGHTS
ASCII
DATASET POLYDATA
POINTS 575 float
0.00844804 0.00680527 0.0173913 0.00292458 0.00459217 0.0200901 0.0118581 0.00781842 0.021179 
0.00959177 0.00278027 0.0208594 0.00732138 0.0075197 0.0232295 0.0113896 0.00435135 0.0230456 
0.00284316 0.00317792 0.0245128 0.0131888 0.00166028 0.0194551 0.0203459 0.00371493 0.0215014 
0.015665 0.00583687 0.0191734 0.012859 0.00625689 0.0231514 0.0178669 0.00326572 0.0232449 
0.018421 0.00652441 0.0220235 0.0217211 0.00664946 0.0229727 0.0226663 0.00139677 0.0202283 
0.0158177 0.000924417 0.0246697 0.00795691 0.0119102 0.0169965 0.0090251 0.0153598 0.0180331 
0.00219654 0.0162748 0.0198433 0.00783978 0.0101656 0.0203566 0.0108472 0.0139544 0.022144 
0.00357581 0.00836295 0.0223094 0.00461686 0.0110043 0.0199645 0.0231063 0.0107814 0.0198751 
0.0195778 0.0114288 0.0232059 0.0140958 0.0132982 0.0208471 0.00709034 0.023174 0.0217695 
0.00308342 0.0221653 0.0219087 0.00529244 0.0188048 0.0203618 0.0116183 0.0172748 0.023975 
0.00463573 0.01885 0.0227569 0.00914235 0.0231966 0.0238512 0.00181676 0.0198225 0.0223141 
0.00604182 0.01799 0.0245142 0.0148928 0.0230402 0.0220497 0.0176988 0.0244545 0.0214653 
0.022581 0.0227675 0.0207522 0.019805 0.0205858 0.0232789 0.0157523 0.0178105 0.0237328 
0.0202048 0.0202193 0.0203365 0.0108832 0.0296624 0.0216731 0.0104062 0.0268639 0.0187161 
0.0113487 0.0306972 0.019769 0.00407608 0.0332766 0.0213289 0.0092696 0.0316573 0.0237661 
0.00230251 0.0322374 0.0237935 0.00660921 0.0280517 0.0236802 0.000900116 0.0257758 0.0242784 
0.00382032 0.0253825 0.0210777 0.0143331 0.0287116 0.019491 0.0176603 0.0295638 0.0189595 
0.0214659 0.0290058 0.0176021 0.0183115 0.0313894 0.023524 0.0220485 0.0306753 0.0227817 
0.0129352 0.0310327 0.023352 0.0216686 0.0251729 0.0218635 0.019608 0.0252894 0.0249058 
0.00673508 0.0392073 0.0195679 0.00797306 0.0351687 0.0199473 0.00343213 0.0370204 0.0192285 
0.0109519 0.0388442 0.0228252 0.0106645 0.038631 0.0200937 0.0178733 0.0377034 0.0189653 
0.0201038 0.0414697 0.0195015 0.0225284 0.0343253 0.0194855 0.017175 0.0404566 0.020598 
0.0123085 0.0405059 0.0223842 0.014766 0.0363065 0.020248 0.0206607 0.0374848 0.0221434 
0.0180476 0.0415061 0.0240366 0.0065439 0.0476948 0.0198696 0.00856018 0.0467983 0.0226139 
0.00389644 0.0484977 0.0195242 0.00832877 0.0428933 0.0230653 0.0033338 0.0474631 0.0249466 
0.00624403 0.0481769 0.0239151 0.0160413 0.0442543 0.0199034 0.0144577 0.0461063 0.0215561 
0.0225443 0.0455754 0.0224468 0.0139264 0.0431249 0.0191324 0.0204667 0.04823 0.0204356 
0.0167249 0.0452705 0.0234856 0.00217018 0.0566907 0.0179375 0.00418213 0.0535135 0.0186862 
0.00845178 0.0534956 0.0185419 0.010089 0.0549917 0.0237533 0.00522034 0.0568425 0.0196961 
0.0117541 0.0567485 0.0229879 0.0048504 0.0518319 0.024915 0.00690818 0.0558209 0.0226032 
0.0215164 0.0582485 0.0205314 0.0159258 0.0525458 0.0223885 0.0130256 0.0550133 0.0209564 
0.0199846 0.0581648 0.0225287 0.0224189 0.0560622 0.0239051 0.0180764 0.0564767 0.0215136 
0.0205196 0.0542458 0.0234615 0.0184619 0.0542899 0.0200276 0.00470345 0.0590695 0.0196769 
0.00924167 0.0646967 0.0219534 0.0116891 0.0583731 0.0196998 0.00628006 0.0655537 0.0236456 
0.00676121 0.0628748 0.024335 0.00353967 0.0599039 0.0220723 0.0217693 0.0636077 0.0192332 
0.0143938 0.0645765 0.0235789 0.022676 0.0600376 0.0195513 0.0125131 0.0622152 0.019861 
0.0207497 0.0657099 0.0240137 0.0197788 0.0592994 0.0213379 0.0140253 0.0609346 0.0209179 
0.00890187 0.0679317 0.0192012 0.00254164 0.0667222 0.0189197 0.00461083 0.0693915 0.0231728 
0.0076424 0.06812 0.024125 0.00938029 0.0704313 0.0245474 0.0169642 0.0685253 0.0190073 
0.0142797 0.0700204 0.0214506 0.0157491 0.0706358 0.0193132 0.0198245 0.0720953 0.0213807 
0.0154734 0.0675839 0.0220916 0.0123205 0.0686813 0.0197997 0.0159947 0.0716894 0.0236166 
0.0103529 0.00171083 0.0286707 0.000958321 0.00782428 0.0281919 0.00693432 0.00361614 0.0295618 
0.0045196 0.0029912 0.0284294 0.0103416 0.00830573 0.027288 0.0057805 0.00250871 0.0252218 
0.00285892 0.00564683 0.0322221 0.00176935 0.00451734 0.0289535 0.00233337 0.00271905 0.029407 
0.000905409 0.00375843 0.027131 0.018264 0.00760126 0.0289242 0.0211612 0.00165672 0.0257312 
0.0127962 0.00758782 0.0311392 0.0163719 0.00593223 0.031194 0.0123749 0.00291593 0.0332062 
0.0212298 0.00151872 0.0300204 0.0131504 0.00783268 0.0275182 0.00507376 0.00842223 0.0282628 
0.00802696 0.0159414 0.0286291 0.00297045 0.0135633 0.0304755 0.00673894 0.0166289 0.0311861 
0.00794544 0.00913169 0.0293383 0.00595494 0.0148079 0.0295246 0.00950063 0.0161374 0.0276416 
0.0085781 0.0131697 0.0261479 0.0051923 0.00929624 0.0261056 0.00395151 0.0155215 0.0274376 
0.01077 0.011809 0.0294 0.00212079 0.0128128 0.027772 0.00401566 0.0101761 0.0321211 
0.0123137 0.0122819 0.0257083 0.0221824 0.00970732 0.0287087 0.0211672 0.0139958 0.0290669 
0.0185573 0.0103758 0.0290688 0.0193102 0.0122524 0.0312823 0.0161106 0.0102288 0.0258163 
0.0155823 0.0117822 0.0292899 0.0152539 0.0145221 0.029242 0.0223981 0.0149634 0.0260291 
0.0130933 0.0121709 0.0323781 0.0188895 0.0140622 0.027198 0.00410589 0.0240813 0.0307282 
0.00938785 0.0172223 0.030947 0.00752008 0.0188469 0.0312078 0.00549383 0.0210196 0.0300026 
0.00663197 0.0234065 0.0271973 0.00959355 0.0215053 0.0258859 0.00803141 0.0249019 0.0308142 
0.0193281 0.0249513 0.0301803 0.0140346 0.0243441 0.0281676 0.0124281 0.0201043 0.0250253 
0.0181586 0.0227732 0.0278032 0.021214 0.0204617 0.0316193 0.0152654 0.0192084 0.0313927 
0.0215956 0.0170964 0.0251561 0.0178715 0.0199662 0.0281953 0.0191481 0.0170126 0.0318913 
0.0222603 0.0197654 0.029138 0.0216813 0.0199168 0.0262313 0.00504555 0.0265219 0.0290596 
0.00340775 0.0313771 0.0297298 0.0102634 0.025745 0.0273379 0.00837284 0.0323634 0.0320285 
0.00212828 0.0310462 0.0267594 0.00231526 0.0269901 0.0289178 0.0104991 0.0300776 0.0255217 
0.0169621 0.0309306 0.0273245 0.0204392 0.0315728 0.0252292 0.0145974 0.0319076 0.0260461 
0.0145387 0.0267897 0.0301142 0.0218672 0.0303104 0.029219 0.0219385 0.025531 0.0286219 
0.0132822 0.032341 0.0314337 0.0221385 0.0307882 0.0322009 0.021793 0.0324299 0.0291294 
0.0157109 0.0311235 0.0326979 0.0127067 0.0280972 0.031765 0.00146146 0.0338178 0.0269642 
0.00279383 0.0370846 0.0296822 0.00996367 0.0357004 0.0253426 0.00745052 0.0402794 0.029179 
0.00258399 0.0411628 0.0285181 0.0082902 0.0416088 0.0264893 0.00456457 0.0396502 0.0294991 
0.00597108 0.0374407 0.0255301 0.00426745 0.0342729 0.0299355 0.00235971 0.0362536 0.0259796 
0.0108334 0.0400025 0.0287676 0.00482438 0.0354423 0.0314845 0.0183459 0.0372004 0.0285665 
0.0212804 0.0364281 0.0266653 0.0222301 0.0409894 0.0308207 0.0173664 0.0387622 0.0290158 
0.0191028 0.0399496 0.0319589 0.0149588 0.0366776 0.025079 0.0137421 0.0362548 0.0324226 
0.0153486 0.0395297 0.029948 0.0232982 0.0395975 0.0330521 0.0040563 0.0442909 0.025489 
0.0115789 0.0445498 0.0264415 0.00437483 0.0491548 0.0262917 0.00590834 0.0421978 0.026972 
0.00367793 0.0470131 0.0294281 0.00206722 0.0490577 0.0320569 0.0167354 0.0493604 0.0276099 
0.0181861 0.0439835 0.0302717 0.0171749 0.0462557 0.0250155 0.0228257 0.0491904 0.0261256 
0.0130939 0.0427248 0.0297941 0.0142392 0.0465758 0.0326488 0.0166053 0.0420962 0.0324973 
0.0161912 0.042274 0.029838 0.0221773 0.0459289 0.0310521 0.00121332 0.0507394 0.0277988 
0.00114061 0.0568531 0.0312248 0.0113834 0.0510835 0.0311418 0.00658256 0.0536446 0.031419 
0.00885017 0.0525112 0.0318561 0.00826333 0.0555584 0.0277049 0.00737231 0.0573929 0.0309423 
0.0142509 0.0571342 0.0310682 0.0175509 0.0576337 0.0295153 0.0211836 0.0537653 0.0325376 
0.0188146 0.0512296 0.0259306 0.00584309 0.0635613 0.0263641 0.00627432 0.0641002 0.0299321 
0.00970005 0.0648939 0.0280644 0.00293561 0.058584 0.028441 0.00488338 0.0593388 0.032627 
0.0080749 0.0587799 0.0255532 0.0026187 0.063836 0.0265946 0.00268866 0.0633592 0.0312828 
0.0145274 0.0586201 0.0281629 0.0146122 0.0605922 0.0268341 0.0179495 0.0657639 0.0253224 
0.0192075 0.0663352 0.0269592 0.020417 0.0619447 0.0305177 0.0216979 0.0640816 0.0269983 
0.0166942 0.0632964 0.0285403 0.0216878 0.0599629 0.0282306 0.0144034 0.0584687 0.0257795 
0.0203342 0.0657963 0.0321514 0.0122775 0.0633463 0.0324806 0.0205384 0.0646176 0.0307745 
0.0224618 0.060846 0.0257682 0.00401247 0.0674778 0.0266016 0.00852214 0.0739399 0.0312659 
0.0114951 0.0709855 0.0294641 0.00550481 0.0731226 0.0268732 0.00823647 0.0698209 0.0307886 
0.00211763 0.0717844 0.0316325 0.00486081 0.0739485 0.0306952 0.00347276 0.0707753 0.0280645 
0.0141255 0.0713066 0.0275426 0.0181418 0.0696106 0.0298779 0.0217023 0.0707441 0.0269178 
0.0169529 0.0733011 0.0273918 0.0126531 0.0667646 0.0317878 0.0187672 0.070552 0.0269042 
0.022956 0.0682447 0.0252938 0.00201074 0.00778063 0.0358156 0.00254613 0.00239847 0.0334485 
0.00495085 0.00292959 0.034768 0.00928342 0.00785202 0.0372853 0.00317872 0.00249723 0.0382914 
0.011828 0.0024702 0.0365959 0.0114011 0.00726372 0.0416039 0.0184125 0.00722762 0.0365681 
0.0196505 0.00623721 0.0387639 0.0168826 0.00457075 0.0375245 0.0173514 0.00102055 0.0392334 
0.0175142 0.00274671 0.0339749 0.0205401 0.00260023 0.0393832 0.0186052 0.00597749 0.0342703 
0.0151473 0.00178465 0.0401998 0.0123621 0.00495657 0.0404681 0.0161848 0.00474861 0.0353925 
0.0150487 0.00227145 0.0383587 0.0117053 0.0114401 0.0366598 0.00722329 0.0084928 0.0387392 
0.00196373 0.0139166 0.0369964 0.00596229 0.00962445 0.037373 0.0030389 0.00885569 0.034158 
0.00641469 0.0115688 0.0336848 0.00824673 0.00890476 0.0343361 0.0101232 0.0138719 0.0377709 
0.00846248 0.0155761 0.0345415 0.00665892 0.0142114 0.0404158 0.00131119 0.0163574 0.0372614 
0.00413283 0.0141929 0.0361892 0.00383572 0.00922304 0.0414569 0.0221154 0.0155542 0.0349513 
0.0155181 0.0143095 0.0376141 0.0169646 0.010655 0.0389433 0.0146826 0.0086597 0.03614 
0.0165391 0.0155993 0.039881 0.0133633 0.0132563 0.0382686 0.0199177 0.0164873 0.0397123 
[...]
POINT_DATA 575
FIELD FieldData 7
id 1 575 int
35 125 367 403 442 449 549 114 197 
290 332 5 412 509 568 572 15 68 
83 235 408 461 510 232 400 414 98 
310 355 227 394 110 500 4 91 280 
307 344 105 443 100 188 225 349 151 
170 111 261 479 22 58 74 285 301 
34 422 370 3 106 196 283 450 7 
55 99 265 276 293 338 46 78 32 
343 407 494 533 21 139 189 253 491 
565 109 128 163 228 279 493 389 559 
88 94 121 135 244 487 560 564 40 
233 284 311 318 495 86 210 240 322 
323 325 382 171 224 136 51 287 69 
148 260 314 335 358 571 45 47 271 
304 373 399 405 434 446 512 56 140 
425 521 529 531 553 65 87 41 179 
243 270 281 305 336 353 390 473 507 
36 177 180 205 19 340 397 448 475 
517 569 54 209 42 366 406 429 566 
84 112 155 190 249 77 354 380 388 
436 456 93 103 254 319 371 468 556 
31 66 96 176 186 263 294 357 411 
518 540 20 48 226 245 267 273 330 
350 472 519 537 554 95 127 80 181 
268 296 211 538 13 24 63 206 417 
437 6 57 161 238 242 328 391 143 
499 544 53 306 43 308 359 378 511 
386 418 252 430 17 79 387 401 427 
490 508 514 82 85 138 216 266 269 
352 375 384 28 174 470 501 29 156 
195 203 218 363 424 462 64 158 184 
207 14 457 525 162 272 404 423 482 
505 282 10 59 118 173 185 208 246 
374 192 464 485 52 73 164 187 298 
315 345 379 420 477 524 545 12 75 
89 60 230 237 277 278 221 327 146 
27 37 137 341 392 395 444 295 542 
372 447 2 478 548 107 129 175 229 
342 398 438 458 489 546 23 33 44 
92 102 199 201 204 214 250 116 145 
528 104 11 1 320 324 346 361 421 
133 236 291 49 356 360 459 480 30 
141 198 241 339 381 451 117 115 150 
160 234 255 72 520 122 149 212 329 
347 561 38 166 222 257 259 302 167 
410 452 474 496 547 317 71 142 247 
251 275 303 313 119 396 481 536 168 
562 97 152 334 231 39 523 292 16 
402 439 393 539 67 134 153 178 215 
312 376 467 541 9 492 497 26 321 
526 552 61 62 219 220 256 377 535 
557 101 113 123 274 454 484 503 169 
213 299 435 25 81 147 154 182 348 
502 515 534 108 200 217 432 488 498 
144 191 193 419 455 90 124 132 248 
262 286 333 362 369 431 465 469 530 
223 309 316 409 516 532 76 126 165 
194 202 288 326 331 364 476 513 120 
172 239 337 365 415 504 527 555 558 
258 289 440 460 506 70 426 471 543 
570 157 351 383 433 445 466 483 522 
563 183 264 297 300 368 453 463 567 
8 18 130 416 428 441 486 550 551 
50 131 159 385 413 573 574 575 
type 1 575 int
1 1 1 1 1 1 1 1 1 
1 1 1 1 1 1 1 1 1 
1 1 1 1 1 1 1 1 1 
1 1 1 1 1 1 1 1 1 
1 1 1 1 1 1 1 1 1 
1 1 1 1 1 1 1 1 1 
1 1 1 1 1 1 1 1 1 
1 1 1 1 1 1 1 1 1 
1 1 1 1 1 1 1 1 1 
1 1 1 1 1 1 1 1 1 
1 1 1 1 1 1 1 1 1 
1 1 1 1 1 1 1 1 1 
1 1 1 1 1 1 1 1 1 
1 1 1 1 1 1 1 1 1 
1 1 1 1 1 1 1 1 1 
1 1 1 1 1 1 1 1 1 
1 1 1 1 1 1 1 1 1 
1 1 1 1 1 1 1 1 1 
1 1 1 1 1 1 1 1 1 
1 1 1 1 1 1 1 1 1 
1 1 1 1 1 1 1 1 1 
1 1 1 1 1 1 1 1 1 
1 1 1 1 1 1 1 1 1 
1 1 1 1 1 1 1 1 1 
1 1 1 1 1 1 1 1 1 
1 1 1 1 1 1 1 1 1 
1 1 1 1 1 1 1 1 1 
1 1 1 1 1 1 1 1 1 
1 1 1 1 1 1 1 1 1 
1 1 1 1 1 1 1 1 1 
1 1 1 1 1 1 1 1 1 
1 1 1 1 1 1 1 1 1 
1 1 1 1 1 1 1 1 1 
1 1 1 1 1 1 1 1 1 
1 1 1 1 1 1 1 1 1 
1 1 1 1 1 1 1 1 1 
1 1 1 1 1 1 1 1 1 
1 1 1 1 1 1 1 1 1 
1 1 1 1 1 1 1 1 1 
1 1 1 1 1 1 1 1 1 
1 1 1 1 1 1 1 1 1 
1 1 1 1 1 1 1 1 1 
1 1 1 1 1 1 1 1 1 
1 1 1 1 1 1 1 1 1 
1 1 1 1 1 1 1 1 1 
1 1 1 1 1 1 1 1 1 
1 1 1 1 1 1 1 1 1 
1 1 1 1 1 1 1 1 1 
1 1 1 1 1 1 1 1 1 
1 1 1 1 1 1 1 1 1 
1 1 1 1 1 1 1 1 1 
1 1 1 1 1 1 1 1 1 
1 1 1 1 1 1 1 1 1 
1 1 1 1 1 1 1 1 1 
1 1 1 1 1 1 1 1 1 
1 1 1 1 1 1 1 1 1 
1 1 1 1 1 1 1 1 1 
1 1 1 1 1 1 1 1 1 
1 1 1 1 1 1 1 1 1 
1 1 1 1 1 1 1 1 1 
1 1 1 1 1 1 1 1 1 
1 1 1 1 1 1 1 1 1 
1 1 1 1 1 1 1 1 1 
1 1 1 1 1 1 1 1 
i 3 575 int
0 0 0 0 0 0 0 0 0 
0 0 0 0 0 0 0 0 0 
0 0 0 0 0 0 0 0 0 
0 0 0 0 0 0 0 0 0 
0 0 0 0 0 0 0 0 0 
0 0 0 0 0 0 0 0 0 
0 0 0 0 0 0 0 0 0 
0 0 0 0 0 0 0 0 0 
0 0 0 0 0 0 0 0 0 
0 0 0 0 0 0 0 0 0 
0 0 0 0 0 0 0 0 0 
0 0 0 0 0 0 0 0 0 
0 0 0 0 0 0 0 0 0 
0 0 0 0 0 0 0 0 0 
0 0 0 0 0 0 0 0 0 
0 0 0 0 0 0 0 0 0 
0 0 0 0 0 0 0 0 0 
0 0 0 0 0 0 0 0 0 
0 0 0 0 0 0 0 0 0 
0 0 0 0 0 0 0 0 0 
0 0 0 0 0 0 0 0 0 
0 0 0 0 0 0 0 0 0 
0 0 0 0 0 0 0 0 0 
0 0 0 0 0 0 0 0 0 
0 0 0 0 0 0 0 0 0 
0 0 0 0 0 0 0 0 0 
0 0 0 0 0 0 0 0 0 
0 0 0 0 0 0 0 0 0 
0 0 0 0 0 0 0 0 0 
0 0 0 0 0 0 0 0 0 
0 0 0 0 0 0 0 0 0 
0 0 0 0 0 0 0 0 0 
0 0 0 0 0 0 0 0 0 
0 0 0 0 0 0 0 0 0 
0 0 0 0 0 0 0 0 0 
0 0 0 0 0 0 0 0 0 
0 0 0 0 0 0 0 0 0 
0 0 0 0 0 0 0 0 0 
0 0 0 0 0 0 0 0 0 
0 0 0 0 0 0 0 0 0 
0 0 0 0 0 0 0 0 0 
0 0 0 0 0 0 0 0 0 
0 0 0 0 0 0 0 0 0 
0 0 0 0 0 0 0 0 0 
0 0 0 0 0 0 0 0 0 
0 0 0 0 0 0 0 0 0 
0 0 0 0 0 0 0 0 0 
0 0 0 0 0 0 0 0 0 
0 0 0 0 0 0 0 0 0 
0 0 0 0 0 0 0 0 0 
0 0 0 0 0 0 0 0 0 
0 0 0 0 0 0 0 0 0 
0 0 0 0 0 0 0 0 0 
0 0 0 0 0 0 0 0 0 
0 0 0 0 0 0 0 0 0 
0 0 0 0 0 0 0 0 0 
0 0 0 0 0 0 0 0 0 
0 0 0 0 0 0 0 0 0 
0 0 0 0 0 0 0 0 0 
0 0 0 0 0 0 0 0 0 
0 0 0 0 0 0 0 0 0 
0 0 0 0 0 0 0 0 0 
0 0 0 0 0 0 0 0 0 
0 0 0 0 0 0 0 0 0 
0 0 0 0 0 0 0 0 0 
0 0 0 0 0 0 0 0 0 
0 0 0 0 0 0 0 0 0 
0 0 0 0 0 0 0 0 0 
0 0 0 0 0 0 0 0 0 
0 0 0 0 0 0 0 0 0 
0 0 0 0 0 0 0 0 0 
0 0 0 0 0 0 0 0 0 
0 0 0 0 0 0 0 0 0 
0 0 0 0 0 0 0 0 0 
0 0 0 0 0 0 0 0 0 
0 0 0 0 0 0 0 0 0 
0 0 0 0 0 0 0 0 0 
0 0 0 0 0 0 0 0 0 
0 0 0 0 0 0 0 0 0 
0 0 0 0 0 0 0 0 0 
0 0 0 0 0 0 0 0 0 
0 0 0 0 0 0 0 0 0 
0 0 0 0 0 0 0 0 0 
0 0 0 0 0 0 0 0 0 
0 0 0 0 0 0 0 0 0 
0 0 0 0 0 0 0 0 0 
0 0 0 0 0 0 0 0 0 
0 0 0 0 0 0 0 0 0 
0 0 0 0 0 0 0 0 0 
0 0 0 0 0 0 0 0 0 
0 0 0 0 0 0 0 0 0 
0 0 0 0 0 0 0 0 0 
0 0 0 0 0 0 0 0 0 
0 0 0 0 0 0 0 0 0 
0 0 0 0 0 0 0 0 0 
0 0 0 0 0 0 0 0 0 
0 0 0 0 0 0 0 0 0 
0 0 0 0 0 0 0 0 0 
0 0 0 0 0 0 0 0 0 
0 0 0 0 0 0 0 0 0 
0 0 0 0 0 0 0 0 0 
0 0 0 0 0 0 0 0 0 
0 0 0 0 0 0 0 0 0 
0 0 0 0 0 0 0 0 0 
0 0 0 0 0 0 0 0 0 
0 0 0 0 0 0 0 0 0 
0 0 0 0 0 0 0 0 0 
0 0 0 0 0 0 0 0 0 
0 0 0 0 0 0 0 0 0 
0 0 0 0 0 0 0 0 0 
0 0 0 0 0 0 0 0 0 
0 0 0 0 0 0 0 0 0 
0 0 0 0 0 0 0 0 0 
0 0 0 0 0 0 0 0 0 
0 0 0 0 0 0 0 0 0 
0 0 0 0 0 0 0 0 0 
0 0 0 0 0 0 0 0 0 
0 0 0 0 0 0 0 0 0 
0 0 0 0 0 0 0 0 0 
0 0 0 0 0 0 0 0 0 
0 0 0 0 0 0 0 0 0 
0 0 0 0 0 0 0 0 0 
0 0 0 0 0 0 0 0 0 
0 0 0 0 0 0 0 0 0 
0 0 0 0 0 0 0 0 0 
0 0 0 0 0 0 0 0 0 
0 0 0 0 0 0 0 0 0 
0 0 0 0 0 0 0 0 0 
0 0 0 0 0 0 0 0 0 
0 0 0 0 0 0 0 0 0 
0 0 0 0 0 0 0 0 0 
0 0 0 0 0 0 0 0 0 
0 0 0 0 0 0 0 0 0 
0 0 0 0 0 0 0 0 0 
0 0 0 0 0 0 0 0 0 
0 0 0 0 0 0 0 0 0 
0 0 0 0 0 0 0 0 0 
0 0 0 0 0 0 0 0 0 
0 0 0 0 0 0 0 0 0 
0 0 0 0 0 0 0 0 0 
0 0 0 0 0 0 0 0 0 
0 0 0 0 0 0 0 0 0 
0 0 0 0 0 0 0 0 0 
0 0 0 0 0 0 0 0 0 
0 0 0 0 0 0 0 0 0 
0 0 0 0 0 0 0 0 0 
0 0 0 0 0 0 0 0 0 
0 0 0 0 0 0 0 0 0 
0 0 0 0 0 0 0 0 0 
0 0 0 0 0 0 0 0 0 
0 0 0 0 0 0 0 0 0 
0 0 0 0 0 0 0 0 0 
0 0 0 0 0 0 0 0 0 
0 0 0 0 0 0 0 0 0 
0 0 0 0 0 0 0 0 0 
0 0 0 0 0 0 0 0 0 
0 0 0 0 0 0 0 0 0 
0 0 0 0 0 0 0 0 0 
0 0 0 0 0 0 0 0 0 
0 0 0 0 0 0 0 0 0 
0 0 0 0 0 0 0 0 0 
0 0 0 0 0 0 0 0 0 
0 0 0 0 0 0 0 0 0 
0 0 0 0 0 0 0 0 0 
0 0 0 0 0 0 0 0 0 
0 0 0 0 0 0 0 0 0 
0 0 0 0 0 0 0 0 0 
0 0 0 0 0 0 0 0 0 
0 0 0 0 0 0 0 0 0 
0 0 0 0 0 0 0 0 0 
0 0 0 0 0 0 0 0 0 
0 0 0 0 0 0 0 0 0 
0 0 0 0 0 0 0 0 0 
0 0 0 0 0 0 0 0 0 
0 0 0 0 0 0 0 0 0 
0 0 0 0 0 0 0 0 0 
0 0 0 0 0 0 0 0 0 
0 0 0 0 0 0 0 0 0 
0 0 0 0 0 0 0 0 0 
0 0 0 0 0 0 0 0 0 
0 0 0 0 0 0 0 0 0 
0 0 0 0 0 0 0 0 0 
0 0 0 0 0 0 0 0 0 
0 0 0 0 0 0 0 0 0 
0 0 0 0 0 0 0 0 0 
0 0 0 0 0 0 0 0 0 
0 0 0 0 0 0 0 0 0 
0 0 0 0 0 0 0 0 0 
0 0 0 0 0 0 0 0 0 
0 0 0 0 0 0 0 0 0 
0 0 0 0 0 0 0 0 0 
0 0 0 0 0 0 
v 3 575 double
0 0 -2.44683 0 0 -2.06768 0 0 -0.981221 
0 0 -0.783794 0 0 -0.6131 0 0 -0.593971 
0 0 -0.162576 0 0 -2.1155 0.190212 0.0344681 -1.98837 
0 0 -1.33364 0 0 -1.14946 -0.190212 -0.0344681 -2.27083 
0 0 -0.75976 0 0 -0.293294 0 0 -0.0411775 
0 0 -0.0262172 0 0 -2.4873 0 0 -2.2965 
0 0 -2.23616 0 0 -1.55927 0 0 -0.773494 
0 0 -0.522113 0 0 -0.288144 0 0 -1.56639 
0 0 -0.799736 0 0 -0.755836 0 0 -2.17657 
0 0 -1.23285 0 0 -1.0391 0 0 -1.58576 
-0.390168 0.238636 -1.82538 0 0 -2.14493 0 0 -0.326403 
0.181289 -0.110881 -2.08291 0 0 -2.193 0 0 -1.37117 
0 0 -1.25394 0 0 -1.09453 0 0 -2.1567 
0 0 -0.612119 0 0 -2.16823 0 0 -1.77411 
0 0 -1.59606 0 0 -1.07049 0 0 -1.94603 
0 0 -1.87001 0 0 -2.14371 0 0 -1.45701 
0 0 -0.420579 0 0 -2.47749 0 0 -2.34604 
0 0 -2.26412 0 0 -1.35302 0 0 -1.28876 
0 0 -2.44708 0 0 -0.704088 0 0 -0.971656 
0 0 -2.55229 0 0 -2.15621 0 0 -1.72972 
0.0612203 0.0454207 -0.531102 -0.00132675 -0.000984347 -0.597702 0 0 -2.53439 
0 0 -2.35438 0 0 -2.16995 0 0 -1.42439 
0 0 -1.38147 0 0 -1.32114 0 0 -1.1193 
0 0 -2.38086 0 0 -2.24818 0 0 -2.45051 
0 0 -1.09477 0 0 -0.776192 0 0 -0.34823 
0 0 -0.216041 0 0 -2.47823 0 0 -2.00514 
0 0 -1.77387 0 0 -1.5063 0 0 -0.359267 
-0.102233 -0.223824 -0.556178 0 0 -2.14886 0 0 -2.05664 
0 0 -1.89159 -0.246035 -0.259592 -1.39197 0 0 -1.37141 
0.0362581 0.038256 -0.379083 0 0 -0.855162 0 0 -0.0904727 
0 0 -2.20894 0 0 -2.17829 0 0 -2.10079 
0.0273997 -0.151065 -1.78786 0 0 -1.51734 0 0 -0.375453 
0 0 -0.0801722 0 0 -0.0598165 0 0 -2.40122 
0 0 -1.56369 0 0 -1.35645 0 0 -1.23039 
0.156383 -0.11692 -1.82106 0 0 -0.346023 0 0 -2.21949 
0 0 -1.66253 0 0 -1.54603 0 0 -1.20244 
0 0 -1.19532 -0.0401972 0.221623 -1.5352 0 0 -0.908381 
0 0 -1.86461 0 0 -1.5968 0 0 -2.01863 
0 0 -2.37645 0 0 -1.34861 0 0 -2.29502 
0 0 -1.95609 0 0 -1.45921 0 0 -1.21838 
0 0 -1.12763 0 0 -1.02684 0 0 -0.0267077 
0 0 -2.3816 0 0 -2.37939 0 0 -1.39962 
0 0 -1.27797 0 0 -0.956205 0 0 -0.805867 
0 0 -0.77987 0 0 -0.66166 0 0 -0.609667 
0 0 -0.276863 0 0 -2.35119 0 0 -2.0044 
0 0 -0.694523 0 0 -0.243999 0 0 -0.223153 
0 0 -0.219719 0 0 -0.11745 0 0 -2.30827 
0 0 -2.21826 0 0 -2.39484 0 0 -1.81213 
0 0 -1.53156 0 0 -1.40035 0 0 -1.3697 
0 0 -1.26841 0 0 -1.12469 0 0 -1.05136 
0 0 -0.854426 0 0 -0.441916 0 0 -0.299916 
0 0 -2.44267 0 0 -1.81556 0 0 -1.81017 
-0.0625117 -0.155793 -1.99887 0.0625117 0.155793 -2.16125 0 0 -1.11169 
0 0 -0.812734 0 0 -0.605252 0 0 -0.429163 
0 0 -0.253073 0 0 -0.037744 0 0 -2.36737 
0 0 -1.66302 0 0 -2.38773 0 0 -0.982202 
0 0 -0.777418 0 0 -0.67196 0 0 -0.054421 
0 0 -2.22415 0 0 -2.13488 0 0 -1.9193 
0 0 -1.75817 -0.0205433 0.0136732 -1.43696 0 0 -2.2526 
0 0 -1.04008 0 0 -0.932416 0 0 -0.867179 
0.204436 -0.136068 -1.3941 0 0 -0.555957 0 0 -2.18295 
0 0 -2.15916 0 0 -1.50483 0 0 -1.20587 
0 0 -0.968713 0 0 -0.490721 0 0 -0.111809 
0 0 -2.45248 0 0 -2.30361 0 0 -2.17706 
0 0 -1.81875 0 0 -1.77755 0 0 -1.44425 
0 0 -1.31991 0 0 -1.03199 0 0 -0.765401 
-0.201 0.200289 -0.890646 0 0 -0.187346 0 0 -2.47896 
0 0 -2.37816 0 0 -1.59312 0 0 -1.51562 
0 0 -1.40943 0 0 -1.39398 0 0 -1.15682 
0 0 -1.06927 0 0 -0.445349 0 0 -0.246206 
0 0 -0.20059 0 0 -0.115979 0 0 -2.1778 
0 0 -2.05738 0 0 -2.24622 0 0 -1.80649 
0 0 -1.40845 0 0 -1.31697 0 0 -1.65737 
0 0 -0.191516 0 0 -2.50619 0 0 -2.46842 
0 0 -2.31048 0 0 -1.67552 0 0 -0.74529 
0 0 -0.6467 0 0 -2.54493 0 0 -2.34873 
0 0 -1.89649 0.149843 0.328059 -0.825693 0 0 -1.5399 
0 0 -1.18134 0.322862 -0.0908924 -1.39924 0 0 -1.96909 
0 0 -0.32861 0 0 -0.171896 0 0 -2.36934 
0 0 -1.2586 0 0 -2.38405 0 0 -1.24462 
0 0 -1.02414 0 0 -0.943697 0 0 -0.285201 
0 0 -0.878706 0 0 -0.739159 0 0 -1.50851 
0 0 -0.66632 -0.156383 0.11692 -1.8726 0 0 -2.24794 
0 0 -0.867915 0 0 -0.797528 0 0 -0.676865 
0 0 -0.361474 0 0 -0.29354 0 0 -0.268769 
0.00858598 0.0104823 -1.97475 0 0 -2.22366 0 0 -2.01029 
0 0 -1.63089 0 0 -1.41801 0 0 -1.4006 
0 0 -1.05357 0 0 -0.952772 -0.039724 -0.0484978 -2.10252 
0 0 -2.45787 0 0 -1.82267 0 0 -0.459819 
0 0 -0.326158 0 0 -2.4564 0 0 -1.91857 
0 0 -1.74051 0 0 -1.69196 0 0 -1.62059 
0 0 -0.989804 0 0 -0.696485 0 0 -0.517943 
0 0 -2.31023 -0.0169437 -0.0255045 -1.78184 0 0 -1.79692 
0 0 -1.6716 0 0 -2.49588 0.168706 0.253945 -1.80179 
0 0 -0.237623 0 0 -1.89183 0 0 -1.39937 
0 0 -0.780606 0 0 -0.698202 0 0 -0.411505 
0 0 -0.309481 0 0 -1.36945 0 0 -2.53169 
0 0 -2.33206 0.0460625 -0.0117406 -1.89369 0 0 -1.83224 
0 0 -1.78074 0 0 -1.66743 0 0 -1.51439 
0.00549515 -0.0271523 -0.809247 0 0 -1.75547 -0.312652 0.0796898 -1.93401 
-0.0173385 0.0856722 -0.835649 0 0 -2.37375 0.0426154 -0.0382437 -2.20463 
0 0 -1.89036 -0.134429 0.120639 -1.9922 0 0 -1.29612 
0 0 -1.21764 0 0 -1.09109 0 0 -0.936095 
0 0 -0.719294 0 0 -0.426956 0 0 -0.239339 
0 0 -0.171405 0 0 -2.5133 0 0 -2.25922 
0 0 -2.19643 0 0 -2.32985 0 0 -1.5735 
0 0 -1.55633 0 0 -1.38 0 0 -1.37828 
0 0 -1.61151 0.186022 -0.301706 -1.56901 0 0 -1.9632 
0 0 -2.46057 -0.126844 0.205726 -2.17877 0 0 -2.01274 
0 0 -1.11096 0 0 -0.844862 0 0 -0.821563 
0 0 -0.610893 0 0 -1.31868 0 0 -0.17631 
0 0 -0.966506 0 0 -0.605498 0 0 -2.55597 
0 0 -0.421315 0 0 -0.165029 0 0 -2.15523 
0 0 -2.05468 0 0 -1.82022 0 0 -1.57816 
0 0 -1.10164 0 0 -0.809791 0 0 -0.634682 
0 0 -0.53928 0 0 -0.366624 0 0 -0.170424 
0 0 -2.47111 0 0 -2.44953 0 0 -2.38282 
0 0 -2.19079 0 0 -2.16259 -0.0605007 -0.0797059 -1.59664 
0.331268 -0.0286677 -1.30552 0 0 -1.68435 0 0 -1.64683 
0 0 -1.50949 0 0 -2.11182 0.131342 0.123894 -1.82717 
-0.414393 -0.390895 -0.659202 0 0 -2.15891 -0.042982 -0.257866 -2.21912 
0 0 -2.55744 0 0 -1.20538 0 0 -1.19459 
0 0 -1.08349 0 0 -1.00869 0 0 -0.708993 
0 0 -2.0434 0 0 -1.55731 0 0 -1.33168 
0 0 -2.37743 0 0 -1.03321 0 0 -1.01801 
0 0 -0.538544 0 0 -0.414693 -0.151048 -0.1303 -1.86778 
0 0 -2.00097 0.0199804 0.11987 -1.85189 0 0 -1.54481 
0 0 -1.11733 0.221543 0.191113 -1.7784 0 0 -0.579501 
0 0 -2.10913 -0.220131 0.0619713 -1.74297 0 0 -1.95069 
0.0158232 -0.0828279 -1.96915 0 0 -1.56148 0 0 -1.49355 
-0.0158232 0.0828279 -2.20912 0 0 -0.24449 0 0 -2.09686 
0 0 -1.95364 0 0 -1.65468 0 0 -1.16516 
0 0 -1.08251 0 0 -0.0664382 0 0 -2.43923 
0 0 -1.88938 0 0 -1.61029 0 0 -1.47761 
0 0 -1.47148 0.0048203 -0.106348 -1.46959 -0.00706986 0.155979 -1.61837 
0 0 -0.771287 0 0 -0.577049 0 0 -0.437992 
0 0 -0.33793 0 0 -0.167236 0 0 -1.21151 
0 0 -2.28448 0 0 -1.98724 0 0 -1.51366 
0 0 -1.50924 0 0 -1.38637 0 0 -1.2841 
0 0 -1.22304 0 0 -2.10324 0 0 -0.821318 
0 0 -0.413222 0 0 -0.202797 0 0 -1.88448 
0 0 -0.06325 0.0202762 -0.00470554 -2.28207 0 0 -1.94309 
0 0 -1.14775 0 0 -1.56884 -0.0297394 0.00690167 -2.27137 
0 0 -0.23983 0 0 -1.32629 0.428782 -0.198692 -2.15103 
-0.199329 0.0923664 -0.945794 0 0 -0.629042 0 0 -0.825242 
0 0 -0.187837 0 0 -2.30116 0 0 -2.02795 
0 0 -1.93524 0 0 -1.81286 0 0 -1.63825 
0 0 -1.22892 0 0 -0.94664 0 0 -0.502738 
0 0 -0.181706 0 0 -2.53243 0 0 -0.354852 
0 0 -0.335723 0 0 -2.46229 0 0 -1.20513 
0 0 -0.23051 0 0 -0.124808 0 0 -2.32764 
0.0171743 -0.0365245 -2.29133 0 0 -1.6201 -0.116538 0.24784 -1.83468 
0 0 -1.483 0 0 -0.945169 0 0 -0.21089 
0 0 -0.0988112 0 0 -2.16774 0 0 -2.12139 
0 0 -2.08877 0 0 -1.38711 0.0139949 -0.0854138 -0.611581 
0 0 -0.381094 0 0 -0.321743 0 0 -1.87319 
0 0 -1.64732 0 0 -1.29539 0 0 -0.660188 
0 0 -2.46572 0 0 -2.24499 0 0 -1.96247 
-0.064755 0.395214 -1.6849 0 0 -1.80232 0 0 -1.07294 
0 0 -0.325667 0 0 -0.261657 0 0 -0.212117 
0 0 -2.14935 0 0 -1.70716 0 0 -1.62304 
0 0 -0.665093 0 0 -0.370548 0 0 -0.33278 
0 0 -1.9659 0 0 -1.75621 0 0 -1.75302 
0 0 -0.731801 0 0 -0.559145 0 0 -2.19521 
0 0 -2.07283 0 0 -2.04389 0 0 -1.51194 
0 0 -1.44499 0 0 -1.3513 0 0 -1.14848 
0 0 -1.00575 0 0 -0.971901 0 0 -0.665584 
0 0 -0.507398 0 0 -0.471836 0 0 -0.222172 
0 0 -1.60857 0 0 -1.24217 0 0 -1.21396 
0 0 -0.771777 0 0 -0.253319 0 0 -0.217757 
0 0 -2.25382 0.00522631 0.00211451 -2.04404 -0.0354739 -0.0143524 -2.04672 
0.0563298 0.0333414 -0.488248 0 0 -1.69343 0 0 -1.34027 
0 0 -1.186 0.146937 0 -1.1501 0 0 -0.989559 
-0.00830141 -0.00491357 -0.613035 0 0 -0.275636 0 0 -2.10152 
0 0 -1.84009 0 0 -1.54897 0 0 -1.12322 
0 0 -0.98539 0 0 -0.7551 0 0 -0.309971 
0 0 -0.228058 0 0 -0.113036 0 0 -0.0958682 
-0.0581349 -0.108495 -1.28648 0 0 -1.33659 0.125007 0.233296 -1.0286 
0 0 -0.537563 0 0 -0.300897 0 0 -2.28963 
0 0 -0.688637 0 0 -0.449764 0 0 -0.174593 
0 0 -0.031858 0 0 -1.91734 0 0 -1.05896 
0 0 -0.899307 0 0 -0.662886 0 0 -0.610648 
0 0 -0.505926 0 0 -0.401204 0 0 -0.243263 
0 0 -0.0617785 0 0 -1.8006 0 0 -1.43027 
0 0 -1.29637 0 0 -1.28901 0 0 -0.972637 
0 0 -0.571653 0 0 -0.517208 0 0 -0.0536852 
0 0 -2.53292 0 0 -2.48264 0 0 -2.05125 
0 0 -0.746762 0 0 -0.675149 0 0 -0.616534 
0 0 -0.377906 0 0 -0.155709 0 0 -0.127505 
0 0 -2.37694 0 0 -2.04928 0 0 -1.90483 
0 0 -0.885818 0 0 -0.759515 0 0 -0.023029 
0 0 -0.00929497 0 0 -0.00684248 
f 3 575 double
0 0 -8.28938e-05 0 0 -1.2216e-05 0 0 -0.000121567 
0 0 -0.000178278 0 0 -0.000178278 0 0 -8.32682e-06 
0 0 -5.65188e-05 0 0 -3.85351e-05 0 0 -5.65188e-05 
0 0 -2.62731e-05 0 0 -8.32682e-06 0 0 -5.65188e-05 
0 0 -3.85351e-05 0 0 -5.67349e-06 0 0 -2.62731e-05 
0 0 -5.67349e-06 0 0 -3.85351e-05 0 0 -0.000178278 
0 0 -8.32682e-06 0 0 -8.32682e-06 0 0 -1.79051e-05 
0 0 -8.28938e-05 0 0 -5.67349e-06 0 0 -1.2216e-05 
0 0 -1.79051e-05 0 0 -3.85351e-05 0 0 -5.65188e-05 
0 0 -3.85351e-05 0 0 -1.2216e-05 0 0 -8.28938e-05 
0 0 -1.79051e-05 0 0 -5.67349e-06 0 0 -2.62731e-05 
0 0 -3.85351e-05 0 0 -1.79051e-05 0 0 -1.79051e-05 
0 0 -1.2216e-05 0 0 -2.62731e-05 0 0 -1.2216e-05 
0 0 -3.85351e-05 0 0 -8.32682e-06 0 0 -8.28938e-05 
0 0 -2.63414e-06 0 0 -1.79051e-05 0 0 -2.62731e-05 
0 0 -3.85351e-05 0 0 -3.85351e-05 0 0 -1.2216e-05 
0 0 -3.85351e-05 0 0 -2.62731e-05 0 0 -1.79051e-05 
0 0 -3.85351e-05 0 0 -0.000121567 0 0 -5.65188e-05 
0 0 -1.79051e-05 0 0 -5.67349e-06 0 0 -2.62731e-05 
0 0 -1.2216e-05 0 0 -5.67349e-06 0 0 -1.2216e-05 
0 0 -3.8636e-06 0 0 -0.000178278 0 0 -1.79051e-05 
0 0 -3.85351e-05 0 0 -1.79051e-05 0 0 -1.79051e-05 
0 0 -8.32682e-06 0 0 -0.000121567 0 0 -0.000121567 
0 0 -2.62731e-05 0 0 -1.2216e-05 0 0 -1.79051e-05 
0 0 -5.65188e-05 0 0 -2.62731e-05 0 0 -8.32682e-06 
0 0 -1.79051e-05 0 0 -1.79051e-05 0 0 -3.85351e-05 
0 0 -8.32682e-06 0 0 -5.67349e-06 0 0 -0.000261495 
0 0 -1.79051e-05 0 0 -3.8636e-06 0 0 -1.2216e-05 
0 0 -1.79051e-05 0 0 -1.2216e-05 0 0 -1.79051e-05 
0 0 -8.28938e-05 0 0 -5.67349e-06 0 0 -0.000121567 
0 0 -1.2216e-05 0 0 -3.85351e-05 0 0 -1.2216e-05 
0 0 -1.2216e-05 0 0 -5.67349e-06 0 0 -1.2216e-05 
0 0 -0.000121567 0 0 -5.65188e-05 0 0 -5.67349e-06 
0 0 -2.62731e-05 0 0 -1.79051e-05 0 0 -3.85351e-05 
0 0 -2.62731e-05 0 0 -5.65188e-05 0 0 -3.85351e-05 
0 0 -3.85351e-05 0 0 -2.62731e-05 0 0 -1.79051e-05 
0 0 -0.000121567 0 0 -8.32682e-06 0 0 -2.62731e-05 
0 0 -1.79051e-05 0 0 -5.65188e-05 0 0 -1.79051e-05 
0 0 -8.32682e-06 0 0 -1.79051e-05 0 0 -2.62731e-05 
0 0 -5.67349e-06 0 0 -3.85351e-05 0 0 -5.65188e-05 
0 0 -8.32682e-06 0 0 -3.85351e-05 0 0 -0.000178278 
0 0 -5.65188e-05 0 0 -5.67349e-06 0 0 -5.67349e-06 
0 0 -8.32682e-06 0 0 -1.79051e-05 0 0 -8.32682e-06 
0 0 -3.8636e-06 0 0 -8.32682e-06 0 0 -8.32682e-06 
0 0 -8.32682e-06 0 0 -1.2216e-05 0 0 -1.2216e-05 
0 0 -0.000121567 0 0 -1.2216e-05 0 0 -0.000178278 
0 0 -1.79051e-05 0 0 -1.79051e-05 0 0 -8.32682e-06 
0 0 -8.32682e-06 0 0 -2.62731e-05 0 0 -1.79051e-05 
0 0 -3.85351e-05 0 0 -5.65188e-05 0 0 -1.79051e-05 
0 0 -5.65188e-05 0 0 -5.65188e-05 0 0 -1.2216e-05 
0 0 -8.32682e-06 0 0 -5.65188e-05 0 0 -1.79051e-05 
0 0 -8.28938e-05 0 0 -2.62731e-05 0 0 -0.000121567 
0 0 -5.65188e-05 0 0 -5.65188e-05 0 0 -2.62731e-05 
0 0 -8.28938e-05 0 0 -8.32682e-06 0 0 -1.79051e-05 
0 0 -2.62731e-05 0 0 -1.2216e-05 0 0 -3.85351e-05 
0 0 -8.32682e-06 0 0 -2.62731e-05 0 0 -1.79051e-05 
0 0 -3.85351e-05 0 0 -1.2216e-05 0 0 -5.67349e-06 
0 0 -3.85351e-05 0 0 -2.62731e-05 0 0 -5.65188e-05 
0 0 -2.62731e-05 0 0 -0.000121567 0 0 -1.79051e-05 
0 0 -5.67349e-06 0 0 -8.32682e-06 0 0 -8.28938e-05 
0 0 -1.2216e-05 0 0 -8.28938e-05 0 0 -1.2216e-05 
0 0 -8.28938e-05 0 0 -1.79051e-05 0 0 -8.32682e-06 
0 0 -1.79051e-05 0 0 -8.28938e-05 0 0 -1.2216e-05 
0 0 -5.65188e-05 0 0 -8.32682e-06 0 0 -1.2216e-05 
0 0 -8.32682e-06 0 0 -3.8636e-06 0 0 -8.28938e-05 
0 0 -3.85351e-05 0 0 -5.67349e-06 0 0 -2.62731e-05 
0 0 -5.67349e-06 0 0 -1.79051e-05 0 0 -1.2216e-05 
0 0 -5.65188e-05 0 0 -2.62731e-05 0 0 -8.28938e-05 
0 0 -1.2216e-05 0 0 -3.85351e-05 0 0 -2.62731e-05 
0 0 -8.28938e-05 0 0 -1.79051e-05 0 0 -8.28938e-05 
0 0 -5.65188e-05 0 0 -8.32682e-06 0 0 -1.79051e-05 
0 0 -8.32682e-06 0 0 -3.85351e-05 0 0 -8.32682e-06 
0 0 -1.2216e-05 0 0 -0.000261495 0 0 -8.28938e-05 
0 0 -2.62731e-05 0 0 -5.67349e-06 0 0 -5.65188e-05 
0 0 -0.000121567 0 0 -1.2216e-05 0 0 -1.79051e-05 
0 0 -3.85351e-05 0 0 -3.85351e-05 0 0 -5.65188e-05 
0 0 -2.62731e-05 0 0 -1.2216e-05 0 0 -1.79051e-05 