# vtk DataFile Version 4.0
Generated by LIGGGHTS
ASCII
DATASET POLYDATA
POINTS 538 float
0.0101734 0.00455292 0.0116574 0.00411908 0.00438046 0.0108755 0.00639242 0.00213944 0.0121393 
0.00310449 0.00662209 0.0116573 0.000677955 0.00743714 0.0106779 0.00686933 0.00651897 0.0121393 
0.00216297 0.00344744 0.0106779 0.00421921 0.000770548 0.0107705 0.000770484 0.00599464 0.0107704 
0.0021996 0.00145878 0.0114587 0.00565906 0.0044342 0.010678 0.0038986 0.00275262 0.0107705 
0.0079431 0.00418632 0.0107705 0.00077046 0.00302518 0.0107704 0.000770467 0.00077048 0.0130251 
0.00118289 0.00450992 0.0107705 0.00261918 0.00099446 0.0138308 0.000875495 0.00312956 0.0124097 
0.00269122 0.00460455 0.0105965 0.0025128 0.00409069 0.0121815 0.00439914 0.00457217 0.0130327 
0.00830685 0.00414669 0.0133208 0.000994428 0.00662833 0.0132636 0.0034797 0.00266188 0.0131712 
0.00985961 0.00145882 0.0114587 0.000770488 0.00519503 0.0120877 0.0102073 0.00753828 0.0125133 
0.00222742 0.00526532 0.0136082 0.00879426 0.000875473 0.0134521 0.0114728 0.000994482 0.0132477 
0.000770496 0.00442349 0.0134216 0.00958154 0.00688833 0.0108754 0.0113849 0.00681008 0.0137701 
0.0120218 0.00571761 0.0127165 0.0120383 0.0058299 0.0107705 0.0125913 0.00128395 0.0112839 
0.0152031 0.00617798 0.01113 0.0224711 0.00366685 0.0114587 0.0165661 0.00400169 0.0114588 
0.0192572 0.00450241 0.0112839 0.0228699 0.00113006 0.01113 0.0145131 0.000770452 0.0107704 
0.0160391 0.00194789 0.0107704 0.0208886 0.00087549 0.0108754 0.0215203 0.00557254 0.010678 
0.0167295 0.000677944 0.010678 0.0186098 0.00165747 0.0116574 0.0228699 0.00784628 0.01113 
0.0168992 0.00754467 0.0121706 0.0176469 0.00598687 0.0108754 0.0226723 0.00630468 0.0127709 
0.0134568 0.00407024 0.0116574 0.0198563 0.00717329 0.0114587 0.0230055 0.00192086 0.0130972 
0.0231245 0.00583063 0.0108754 0.0230055 0.00443639 0.0137261 0.0210117 0.00530673 0.0122524 
0.0150638 0.00163422 0.0127503 0.0214579 0.000875482 0.0125313 0.0129675 0.00805263 0.011883 
0.0200649 0.000994482 0.013773 0.00901783 0.00904332 0.0112839 0.00462934 0.012162 0.0112839 
0.00790876 0.014214 0.0121393 0.00634641 0.0088703 0.0106779 0.00423725 0.0150532 0.0116574 
0.011144 0.0108209 0.0114587 0.00443822 0.00943151 0.0114587 0.00113002 0.0118102 0.01113 
0.00146407 0.00926419 0.0114588 0.0083488 0.0118165 0.010678 0.000770476 0.0136415 0.0107704 
0.00192424 0.0157272 0.0108754 0.0096875 0.0123619 0.0107704 0.00113008 0.0146292 0.0123538 
0.00688732 0.0106562 0.0112839 0.0102587 0.00933558 0.0130269 0.000677983 0.0128857 0.0125114 
0.0029889 0.01087 0.0128185 0.0088323 0.0110118 0.0129224 0.011515 0.013201 0.0109944 
0.00261097 0.0129232 0.0124246 0.0060538 0.0118521 0.013035 0.00306583 0.017198 0.0130958 
0.0107032 0.00794631 0.010678 0.00450547 0.0130526 0.0133774 0.0107123 0.0150208 0.0109944 
0.000525212 0.0155549 0.010525 0.000770476 0.0161683 0.0134093 0.0113186 0.0142013 0.0125621 
0.0184043 0.0104916 0.012287 0.0155512 0.00895578 0.0109944 0.016313 0.00968673 0.0126801 
0.0173374 0.015422 0.0112839 0.0142066 0.0113617 0.0116573 0.0205334 0.0107016 0.0109944 
0.0153006 0.0163832 0.0108754 0.018298 0.00921437 0.01113 0.021918 0.0126728 0.0114587 
0.0188986 0.0108587 0.0106779 0.0212281 0.0089696 0.0108754 0.0169207 0.0110065 0.01113 
0.0228692 0.0101743 0.01113 0.0204371 0.0156745 0.011883 0.0159639 0.0145094 0.0126781 
0.0187191 0.0128395 0.0114587 0.0161848 0.0132536 0.01113 0.0230055 0.0139662 0.0132372 
0.0125057 0.0104158 0.0134588 0.0142591 0.0157441 0.0137261 0.0202035 0.0112112 0.0133713 
0.0231245 0.0145842 0.0108754 0.0149822 0.0131755 0.0132462 0.0232295 0.0154331 0.0122817 
0.0146105 0.00961893 0.0134505 0.0136488 0.0146294 0.0116574 0.0230056 0.0166196 0.0109944 
0.00122732 0.0172956 0.0123004 0.00630949 0.0166539 0.0109944 0.0100751 0.0168236 0.0133411 
0.00077045 0.0168964 0.0107704 0.00629546 0.0239154 0.0114587 0.00308232 0.0197484 0.0109944 
0.00829105 0.0244067 0.010678 0.00128398 0.0213255 0.0112839 0.00696659 0.0213024 0.0108754 
0.00408204 0.022305 0.0112839 0.00113006 0.0189213 0.01113 0.00241974 0.0174066 0.0108755 
0.00529517 0.0202237 0.01113 0.010008 0.0200811 0.0107704 0.0104267 0.0184928 0.0108754 
0.00280537 0.0230443 0.0133857 0.00899837 0.0165924 0.0107705 0.000770474 0.0232473 0.0107704 
0.00605955 0.02169 0.012464 0.00302821 0.0208292 0.0126632 0.00788944 0.0188889 0.011883 
0.00446629 0.0179617 0.0112839 0.00929631 0.0223826 0.011883 0.00472069 0.0194666 0.013349 
0.000994444 0.0239746 0.0123628 0.00580967 0.016938 0.0126631 0.00446061 0.0217027 0.0132112 
0.00462073 0.0235213 0.012726 0.00977389 0.0246062 0.0130605 0.00806188 0.0246104 0.0126278 
0.0110408 0.0244915 0.0109944 0.00290543 0.0245875 0.0112839 0.0115528 0.0240384 0.0130059 
0.0118806 0.022912 0.010678 0.000875428 0.0252001 0.0108754 0.0118844 0.016953 0.0112839 
0.0158692 0.0167397 0.0129279 0.012238 0.0186147 0.0124391 0.013294 0.0168006 0.0129127 
0.0170678 0.0178161 0.01113 0.013659 0.0224586 0.0109944 0.0149853 0.0240124 0.0109944 
0.0231229 0.0227681 0.0108755 0.0194286 0.0187315 0.0112839 0.0120988 0.020612 0.0114587 
0.0154135 0.0228322 0.0127083 0.0181867 0.0218535 0.0107703 0.0169711 0.0232695 0.01113 
0.0186376 0.0170414 0.0106779 0.0233351 0.0213376 0.0105965 0.0223235 0.0190951 0.0116574 
0.0142254 0.0183714 0.0114588 0.0157269 0.0214301 0.0107705 0.0160798 0.0193993 0.0107703 
0.0205751 0.0221676 0.011883 0.0145616 0.0209663 0.012155 0.0231245 0.0169935 0.0128227 
0.014071 0.0203544 0.0106779 0.0173079 0.0204765 0.0128613 0.0131625 0.02225 0.012704 
0.0175126 0.0252183 0.0128886 0.0181529 0.0233476 0.0128938 0.0231246 0.0213348 0.0125278 
0.0230056 0.0231108 0.0131009 0.00935093 0.0264247 0.0116574 0.00946556 0.0286874 0.0107704 
0.00747647 0.0286606 0.0112839 0.00863719 0.0322366 0.01113 0.0013071 0.0320457 0.0112839 
0.0033699 0.027113 0.0112839 0.000994449 0.0270625 0.0109944 0.00535619 0.0286897 0.0108754 
0.00609234 0.031229 0.0116574 0.0058936 0.0266385 0.0112839 0.0106811 0.0312702 0.01113 
0.00886783 0.0302607 0.0108754 0.00165732 0.0292945 0.0122638 0.00451427 0.0254459 0.013092 
0.00391256 0.0298723 0.0109943 0.00488775 0.028252 0.012776 0.00157252 0.0259854 0.012732 
0.00331213 0.0312091 0.0121558 0.00711828 0.0261179 0.013298 0.00741565 0.0255589 0.0106779 
0.000770463 0.0274728 0.0136016 0.00214378 0.0335924 0.0117084 0.0034806 0.032665 0.0109944 
0.00930188 0.0293146 0.0122834 0.000596481 0.0312069 0.0128095 0.0124186 0.0313365 0.0128486 
0.0117252 0.0287381 0.0116574 0.0075943 0.0334111 0.0122001 0.00703343 0.0332839 0.0107704 
0.0116106 0.0264713 0.0107704 0.00087548 0.0335924 0.0127277 0.0189602 0.0262514 0.0125816 
0.0121339 0.030721 0.010525 0.0223349 0.0252319 0.0116574 0.0130242 0.0243436 0.0109944 
0.0165897 0.0254972 0.01113 0.0127513 0.0260874 0.0124353 0.0201819 0.0260583 0.0120259 
0.0151541 0.0250779 0.0128246 0.0188901 0.0247816 0.0112839 0.0145103 0.0259437 0.0109944 
0.0157943 0.0274626 0.0109944 0.0180537 0.0274106 0.0112839 0.0144392 0.0290932 0.01113 
0.0130741 0.0324868 0.0109944 0.0225412 0.0314097 0.0114587 0.019753 0.0265865 0.010678 
0.0152804 0.0315195 0.0114587 0.0196267 0.0315427 0.0114588 0.0234026 0.0269344 0.0105965 
0.0165173 0.0291804 0.0120143 0.0135545 0.0274106 0.0107704 0.0184429 0.02929 0.0120169 
0.0172661 0.0317631 0.010678 0.0232752 0.0282004 0.010678 0.0209698 0.028491 0.011883 
0.0135164 0.0305809 0.010678 0.0177642 0.0302623 0.0108754 0.0174558 0.0311067 0.0125151 
0.0143909 0.0274379 0.0120644 0.019843 0.0334156 0.0130751 0.0198134 0.0336548 0.0107704 
0.023322 0.0331073 0.0124954 0.0232296 0.0272897 0.0125846 0.000994467 0.0342839 0.0109944 
0.000875467 0.0361462 0.0108754 0.0027449 0.0342536 0.0107704 0.000875438 0.0378971 0.0108754 
0.00603907 0.0354912 0.010678 0.0114738 0.0406955 0.0121393 0.00785363 0.0349603 0.01113 
0.0069214 0.037534 0.0116573 0.00388424 0.0362056 0.0116574 0.00679732 0.0408466 0.0116573 
0.0093843 0.0365949 0.0109944 0.00395015 0.0393148 0.0114587 0.00941005 0.038617 0.0109944 
0.00128395 0.0399778 0.0112839 0.00524987 0.0338333 0.01113 0.00128943 0.0357004 0.0129473 
0.010496 0.0342457 0.0116574 0.00489296 0.0380355 0.0135024 0.00481179 0.0405136 0.0135853 
0.00197835 0.0380361 0.0125446 0.00909508 0.040125 0.0105965 0.00866236 0.0392578 0.0129869 
0.00621329 0.0351787 0.0122632 0.009103 0.0413973 0.010678 0.0129032 0.0343451 0.0108754 
0.0025971 0.040702 0.0131756 0.017436 0.034044 0.011883 0.014705 0.0338588 0.0109944 
0.0212224 0.0334478 0.011813 0.0139148 0.0391643 0.0130919 0.018098 0.0366998 0.0109944 
0.0230056 0.0337735 0.0109944 0.0128148 0.0369117 0.011883 0.0157177 0.0377012 0.0109944 
0.0139932 0.0411923 0.0107704 0.0196787 0.0389713 0.011883 0.0203078 0.0357167 0.0114587 
0.0232294 0.040217 0.0107705 0.0153008 0.0357564 0.0109944 0.0173674 0.0382913 0.0107705 
0.022716 0.0382936 0.0112839 0.02287 0.0358894 0.01113 0.0178455 0.0408005 0.0108754 
0.0223866 0.0402371 0.0129297 0.0143884 0.0393685 0.01113 0.0162577 0.0393665 0.0107704 
0.0158756 0.0411932 0.01113 0.0170717 0.0398419 0.0121197 0.0154815 0.0367347 0.012236 
0.0143546 0.041087 0.0122647 0.00579702 0.0491563 0.0120415 0.00336812 0.0499605 0.0133816 
0.00767722 0.0426611 0.0131901 0.00384195 0.045754 0.0122679 0.00870206 0.0484148 0.0125296 
0.00590224 0.047652 0.0127648 0.00934611 0.0466421 0.0121874 0.00468044 0.0435364 0.0128188 
0.00669743 0.0435827 0.0120765 0.00271 0.0462144 0.0109944 0.0107293 0.0479763 0.0114587 
0.00140941 0.0454906 0.0123137 0.000875472 0.0465597 0.0108754 0.00131631 0.048071 0.0123534 
0.00369957 0.0444858 0.0109944 0.000770422 0.0449206 0.0107704 0.00707356 0.049423 0.0109944 
0.00170841 0.0428644 0.0116574 0.0112599 0.0447042 0.011883 0.0084794 0.0455877 0.01113 
0.00591153 0.0455754 0.0114587 0.00796324 0.0476441 0.0109944 0.00389803 0.0483101 0.0114587 
0.00610609 0.0478272 0.0108754 0.00854944 0.0431795 0.0112839 0.00560051 0.043331 0.0108754 
[...]
POINT_DATA 538
FIELD FieldData 7
id 1 538 int
1 2 3 4 5 6 7 8 9 
10 11 12 13 14 15 16 17 18 
19 20 21 22 24 25 26 29 31 
33 34 35 38 39 45 55 56 57 
58 59 60 61 62 63 64 65 66 
67 68 69 70 71 72 73 76 77 
80 81 82 85 90 95 96 106 107 
108 109 110 111 112 113 114 115 116 
117 118 119 120 121 122 124 126 128 
129 131 132 133 134 141 144 155 162 
163 164 165 166 167 168 169 170 171 
172 173 174 175 176 177 178 179 181 
184 187 190 191 192 194 197 198 200 
219 220 222 223 224 225 226 227 228 
229 230 231 232 233 234 235 236 237 
238 239 240 241 242 244 245 248 250 
251 254 262 264 265 270 273 275 276 
279 283 284 285 286 287 288 289 290 
291 292 293 294 295 296 297 298 299 
300 301 302 303 305 306 308 309 310 
317 330 331 332 333 334 335 336 337 
338 339 340 341 342 343 344 346 347 
348 349 351 353 357 359 362 366 368 
375 376 379 380 382 385 386 387 388 
389 390 391 392 393 394 395 396 397 
398 399 400 401 402 403 404 405 406 
408 409 410 411 413 415 416 417 418 
419 421 435 436 437 439 440 441 442 
443 444 445 446 447 448 449 450 451 
453 455 456 457 458 459 460 466 478 
479 497 498 499 500 501 502 503 504 
505 506 507 508 509 510 511 513 514 
515 516 517 522 523 524 535 486 487 
488 489 490 491 492 493 494 495 496 
512 518 519 520 521 525 526 527 528 
529 530 531 532 533 534 536 537 538 
438 452 454 461 462 463 464 465 467 
468 469 470 471 472 473 474 475 476 
477 480 481 482 483 484 485 355 356 
358 360 361 363 364 365 367 369 370 
371 372 373 374 377 378 381 383 384 
407 412 414 420 422 423 424 425 426 
427 428 429 430 431 432 433 434 266 
267 268 269 271 272 274 277 278 280 
281 282 304 307 311 312 313 314 315 
316 318 319 320 321 322 323 324 325 
326 327 328 329 345 350 352 354 207 
208 209 210 211 212 213 214 215 216 
217 218 221 243 246 247 249 252 253 
255 256 257 258 259 260 261 263 142 
143 145 146 147 148 149 150 151 152 
153 154 156 157 158 159 160 161 180 
182 183 185 186 188 189 193 195 196 
199 201 202 203 204 205 206 86 87 
88 89 91 92 93 94 97 98 99 
100 101 102 103 104 105 123 125 127 
130 135 136 137 138 139 140 23 27 
28 30 32 36 37 40 41 42 43 
44 46 47 48 49 50 51 52 53 
54 74 75 78 79 83 84 
type 1 538 int
1 1 1 1 1 1 1 1 1 
1 1 1 1 1 1 1 1 1 
1 1 1 1 1 1 1 1 1 
1 1 1 1 1 1 1 1 1 
1 1 1 1 1 1 1 1 1 
1 1 1 1 1 1 1 1 1 
1 1 1 1 1 1 1 1 1 
1 1 1 1 1 1 1 1 1 
1 1 1 1 1 1 1 1 1 
1 1 1 1 1 1 1 1 1 
1 1 1 1 1 1 1 1 1 
1 1 1 1 1 1 1 1 1 
1 1 1 1 1 1 1 1 1 
1 1 1 1 1 1 1 1 1 
1 1 1 1 1 1 1 1 1 
1 1 1 1 1 1 1 1 1 
1 1 1 1 1 1 1 1 1 
1 1 1 1 1 1 1 1 1 
1 1 1 1 1 1 1 1 1 
1 1 1 1 1 1 1 1 1 
1 1 1 1 1 1 1 1 1 
1 1 1 1 1 1 1 1 1 
1 1 1 1 1 1 1 1 1 
1 1 1 1 1 1 1 1 1 
1 1 1 1 1 1 1 1 1 
1 1 1 1 1 1 1 1 1 
1 1 1 1 1 1 1 1 1 
1 1 1 1 1 1 1 1 1 
1 1 1 1 1 1 1 1 1 
1 1 1 1 1 1 1 1 1 
1 1 1 1 1 1 1 1 1 
1 1 1 1 1 1 1 1 1 
1 1 1 1 1 1 1 1 1 
1 1 1 1 1 1 1 1 1 
1 1 1 1 1 1 1 1 1 
1 1 1 1 1 1 1 1 1 
1 1 1 1 1 1 1 1 1 
1 1 1 1 1 1 1 1 1 
1 1 1 1 1 1 1 1 1 
1 1 1 1 1 1 1 1 1 
1 1 1 1 1 1 1 1 1 
1 1 1 1 1 1 1 1 1 
1 1 1 1 1 1 1 1 1 
1 1 1 1 1 1 1 1 1 
1 1 1 1 1 1 1 1 1 
1 1 1 1 1 1 1 1 1 
1 1 1 1 1 1 1 1 1 
1 1 1 1 1 1 1 1 1 
1 1 1 1 1 1 1 1 1 
1 1 1 1 1 1 1 1 1 
1 1 1 1 1 1 1 1 1 
1 1 1 1 1 1 1 1 1 
1 1 1 1 1 1 1 1 1 
1 1 1 1 1 1 1 1 1 
1 1 1 1 1 1 1 1 1 
1 1 1 1 1 1 1 1 1 
1 1 1 1 1 1 1 1 1 
1 1 1 1 1 1 1 1 1 
1 1 1 1 1 1 1 1 1 
1 1 1 1 1 1 1 
i 3 538 int
0 0 0 0 0 0 0 0 0 
0 0 0 0 0 0 0 0 0 
0 0 0 0 0 0 0 0 0 
0 0 0 0 0 0 0 0 0 
0 0 0 0 0 0 0 0 0 
0 0 0 0 0 0 0 0 0 
0 0 0 0 0 0 0 0 0 
0 0 0 0 0 0 0 0 0 
0 0 0 0 0 0 0 0 0 
0 0 0 0 0 0 0 0 0 
0 0 0 0 0 0 0 0 0 
0 0 0 0 0 0 0 0 0 
0 0 0 0 0 0 0 0 0 
0 0 0 0 0 0 0 0 0 
0 0 0 0 0 0 0 0 0 
0 0 0 0 0 0 0 0 0 
0 0 0 0 0 0 0 0 0 
0 0 0 0 0 0 0 0 0 
0 0 0 0 0 0 0 0 0 
0 0 0 0 0 0 0 0 0 
0 0 0 0 0 0 0 0 0 
0 0 0 0 0 0 0 0 0 
0 0 0 0 0 0 0 0 0 
0 0 0 0 0 0 0 0 0 
0 0 0 0 0 0 0 0 0 
0 0 0 0 0 0 0 0 0 
0 0 0 0 0 0 0 0 0 
0 0 0 0 0 0 0 0 0 
0 0 0 0 0 0 0 0 0 
0 0 0 0 0 0 0 0 0 
0 0 0 0 0 0 0 0 0 
0 0 0 0 0 0 0 0 0 
0 0 0 0 0 0 0 0 0 
0 0 0 0 0 0 0 0 0 
0 0 0 0 0 0 0 0 0 
0 0 0 0 0 0 0 0 0 
0 0 0 0 0 0 0 0 0 
0 0 0 0 0 0 0 0 0 
0 0 0 0 0 0 0 0 0 
0 0 0 0 0 0 0 0 0 
0 0 0 0 0 0 0 0 0 
0 0 0 0 0 0 0 0 0 
0 0 0 0 0 0 0 0 0 
0 0 0 0 0 0 0 0 0 
0 0 0 0 0 0 0 0 0 
0 0 0 0 0 0 0 0 0 
0 0 0 0 0 0 0 0 0 
0 0 0 0 0 0 0 0 0 
0 0 0 0 0 0 0 0 0 
0 0 0 0 0 0 0 0 0 
0 0 0 0 0 0 0 0 0 
0 0 0 0 0 0 0 0 0 
0 0 0 0 0 0 0 0 0 
0 0 0 0 0 0 0 0 0 
0 0 0 0 0 0 0 0 0 
0 0 0 0 0 0 0 0 0 
0 0 0 0 0 0 0 0 0 
0 0 0 0 0 0 0 0 0 
0 0 0 0 0 0 0 0 0 
0 0 0 0 0 0 0 0 0 
0 0 0 0 0 0 0 0 0 
0 0 0 0 0 0 0 0 0 
0 0 0 0 0 0 0 0 0 
0 0 0 0 0 0 0 0 0 
0 0 0 0 0 0 0 0 0 
0 0 0 0 0 0 0 0 0 
0 0 0 0 0 0 0 0 0 
0 0 0 0 0 0 0 0 0 
0 0 0 0 0 0 0 0 0 
0 0 0 0 0 0 0 0 0 
0 0 0 0 0 0 0 0 0 
0 0 0 0 0 0 0 0 0 
0 0 0 0 0 0 0 0 0 
0 0 0 0 0 0 0 0 0 
0 0 0 0 0 0 0 0 0 
0 0 0 0 0 0 0 0 0 
0 0 0 0 0 0 0 0 0 
0 0 0 0 0 0 0 0 0 
0 0 0 0 0 0 0 0 0 
0 0 0 0 0 0 0 0 0 
0 0 0 0 0 0 0 0 0 
0 0 0 0 0 0 0 0 0 
0 0 0 0 0 0 0 0 0 
0 0 0 0 0 0 0 0 0 
0 0 0 0 0 0 0 0 0 
0 0 0 0 0 0 0 0 0 
0 0 0 0 0 0 0 0 0 
0 0 0 0 0 0 0 0 0 
0 0 0 0 0 0 0 0 0 
0 0 0 0 0 0 0 0 0 
0 0 0 0 0 0 0 0 0 
0 0 0 0 0 0 0 0 0 
0 0 0 0 0 0 0 0 0 
0 0 0 0 0 0 0 0 0 
0 0 0 0 0 0 0 0 0 
0 0 0 0 0 0 0 0 0 
0 0 0 0 0 0 0 0 0 
0 0 0 0 0 0 0 0 0 
0 0 0 0 0 0 0 0 0 
0 0 0 0 0 0 0 0 0 
0 0 0 0 0 0 0 0 0 
0 0 0 0 0 0 0 0 0 
0 0 0 0 0 0 0 0 0 
0 0 0 0 0 0 0 0 0 
0 0 0 0 0 0 0 0 0 
0 0 0 0 0 0 0 0 0 
0 0 0 0 0 0 0 0 0 
0 0 0 0 0 0 0 0 0 
0 0 0 0 0 0 0 0 0 
0 0 0 0 0 0 0 0 0 
0 0 0 0 0 0 0 0 0 
0 0 0 0 0 0 0 0 0 
0 0 0 0 0 0 0 0 0 
0 0 0 0 0 0 0 0 0 
0 0 0 0 0 0 0 0 0 
0 0 0 0 0 0 0 0 0 
0 0 0 0 0 0 0 0 0 
0 0 0 0 0 0 0 0 0 
0 0 0 0 0 0 0 0 0 
0 0 0 0 0 0 0 0 0 
0 0 0 0 0 0 0 0 0 
0 0 0 0 0 0 0 0 0 
0 0 0 0 0 0 0 0 0 
0 0 0 0 0 0 0 0 0 
0 0 0 0 0 0 0 0 0 
0 0 0 0 0 0 0 0 0 
0 0 0 0 0 0 0 0 0 
0 0 0 0 0 0 0 0 0 
0 0 0 0 0 0 0 0 0 
0 0 0 0 0 0 0 0 0 
0 0 0 0 0 0 0 0 0 
0 0 0 0 0 0 0 0 0 
0 0 0 0 0 0 0 0 0 
0 0 0 0 0 0 0 0 0 
0 0 0 0 0 0 0 0 0 
0 0 0 0 0 0 0 0 0 
0 0 0 0 0 0 0 0 0 
0 0 0 0 0 0 0 0 0 
0 0 0 0 0 0 0 0 0 
0 0 0 0 0 0 0 0 0 
0 0 0 0 0 0 0 0 0 
0 0 0 0 0 0 0 0 0 
0 0 0 0 0 0 0 0 0 
0 0 0 0 0 0 0 0 0 
0 0 0 0 0 0 0 0 0 
0 0 0 0 0 0 0 0 0 
0 0 0 0 0 0 0 0 0 
0 0 0 0 0 0 0 0 0 
0 0 0 0 0 0 0 0 0 
0 0 0 0 0 0 0 0 0 
0 0 0 0 0 0 0 0 0 
0 0 0 0 0 0 0 0 0 
0 0 0 0 0 0 0 0 0 
0 0 0 0 0 0 0 0 0 
0 0 0 0 0 0 0 0 0 
0 0 0 0 0 0 0 0 0 
0 0 0 0 0 0 0 0 0 
0 0 0 0 0 0 0 0 0 
0 0 0 0 0 0 0 0 0 
0 0 0 0 0 0 0 0 0 
0 0 0 0 0 0 0 0 0 
0 0 0 0 0 0 0 0 0 
0 0 0 0 0 0 0 0 0 
0 0 0 0 0 0 0 0 0 
0 0 0 0 0 0 0 0 0 
0 0 0 0 0 0 0 0 0 
0 0 0 0 0 0 0 0 0 
0 0 0 0 0 0 0 0 0 
0 0 0 0 0 0 0 0 0 
0 0 0 0 0 0 0 0 0 
0 0 0 0 0 0 0 0 0 
0 0 0 0 0 0 0 0 0 
0 0 0 0 0 0 0 0 0 
0 0 0 0 0 0 0 0 0 
0 0 0 0 0 0 0 0 0 
0 0 0 0 0 0 0 0 0 
0 0 0 0 0 0 0 0 0 
0 0 0 0 0 0 0 0 0 
0 0 0 0 0 0 0 0 0 
0 0 0 
v 3 538 double
0.000989514 1.3512e-05 -3.35057e-06 -0.00223759 -0.000770373 -1.55716e-10 -0.00201161 -0.000151705 7.55681e-05 
0.00040588 0.000536076 -3.32278e-05 0.000189096 0.000290767 2.81532e-05 0.000603716 -0.00301698 -0.000139244 
-0.000826241 0.000117796 9.89851e-05 -0.00945286 0.000324814 6.91555e-12 5.71804e-05 9.77777e-05 9.37598e-05 
0.000543597 -0.000125488 -0.000120946 -0.00224247 0.00288714 3.76763e-12 -0.00594717 0.000418174 -2.75315e-06 
0.00145837 -0.00280369 8.51673e-06 -0.00017653 -0.00106101 -9.23519e-05 1.34507e-05 3.29076e-05 -0.000494467 
-0.00175041 -0.000521821 3.35652e-05 -0.00270861 0.000385869 0.000375704 -2.50728e-06 -0.000646139 -0.000207726 
-0.00216104 0.000860805 5.29028e-12 -0.00322741 0.00084255 0.000682735 -0.00108986 0.000265513 0.00100983 
0.00121145 -0.00287205 -0.000523386 3.74267e-05 0.0637433 -0.000732452 -0.00191924 0.000745729 0.000593787 
-0.00208561 0.000158079 8.73171e-05 5.45188e-05 0.000305973 0.000267695 0.00287841 -0.0106875 0.00317781 
-0.0537392 0.0107695 -0.017442 -0.00197008 -2.75486e-06 4.52061e-05 -0.00205308 7.73615e-05 0.000388239 
-6.24792e-05 -0.00079179 -0.000267914 0.000154339 -7.61249e-05 1.4011e-05 0.00639004 -0.00471772 0.00336762 
0.00302257 -0.00327933 -0.00033042 0.00317677 -0.00334874 -9.21359e-05 -0.00286131 -0.00028873 -6.75357e-05 
0.00166388 -0.00118043 -5.16764e-05 0.00603494 0.00108626 -1.8806e-06 0.00601426 0.00145793 -1.23332e-05 
0.00640176 -0.000425425 -3.32801e-06 5.95063e-06 3.66243e-05 -1.30858e-06 -0.00305406 7.40561e-06 -0.000106114 
0.00621899 0.00133765 3.80704e-05 0.00440243 9.83612e-06 2.10834e-05 -0.0201906 0.0172757 5.53839e-12 
0.00415807 0.000100742 5.06878e-05 0.0043493 -1.816e-05 -1.72201e-06 -2.81144e-06 0.0124721 1.43744e-05 
0.168487 -0.0954244 -0.147974 0.296597 -0.156827 -3.653e-05 0.000587927 0.0105553 -0.00173068 
0.00374452 -0.00270662 5.88834e-05 0.00387721 0.000333393 -1.60139e-05 -4.44994e-06 -0.000553386 0.000233968 
1.27679e-06 0.00294527 1.32745e-05 3.83309e-05 0.010422 -0.00174705 0.00590065 0.00130791 -0.000665301 
0.0047806 -0.00269192 -0.00124548 0.00115572 1.87468e-05 0.00116348 0.0005623 -0.00251567 1.49256e-05 
0.00174641 3.53612e-05 0.00182228 0.00841796 -0.00892404 4.60268e-05 -0.00326713 0.000844049 -0.000376923 
-0.0129512 -0.0152647 4.33666e-05 0.00266691 -0.00182732 0.000345042 -0.00903958 0.000739938 -4.18261e-05 
0.00272079 -0.00101835 -0.000116931 0.0027556 -7.55194e-05 4.53387e-05 0.000433861 0.000844927 0.000217479 
0.000423064 0.000633489 -2.03438e-05 0.00747661 -0.00782156 3.9268e-06 -0.000156293 0.000241782 -0.000352682 
-0.00425356 0.0180819 0.000107031 0.00412323 0.00066296 0.000134925 0.000466988 0.00714705 -0.00528669 
0.00216246 -0.00122464 -7.88364e-06 0.0121755 -0.00928554 -0.00253199 -4.26562e-05 0.0073293 -0.00501265 
-0.416503 -0.1341 -0.305042 0.00277899 -0.0104309 0.00142517 -0.000747396 -5.30385e-05 0.000209 
-0.00593808 0.00138366 0.00775947 -0.0116166 -0.0153117 0.00339527 -0.0610058 -0.19196 -0.130128 
-0.0200811 0.0211069 1.72726e-11 -0.000574314 0.00113406 -0.000979306 -0.0153322 -0.00624504 8.65242e-05 
0.000363341 -0.124285 1.63097e-11 -2.88875e-05 -0.0166196 0.0291167 0.033026 0.0170801 -0.00641611 
0.21372 0.732686 -0.749138 0.0346894 -0.0998936 1.41603e-05 0.157847 -0.122658 -0.0457524 
-0.00163925 0.0144064 0.000166618 0.00435856 -0.00513584 -5.12587e-05 -0.0156939 0.00186725 2.86729e-05 
-0.00329629 -7.84604e-05 0.000153091 0.0878175 0.0644578 2.96491e-05 -0.0619333 0.0344181 -7.83555e-06 
-0.00639236 0.0989179 1.67177e-05 -0.00409194 0.00650131 -7.34809e-06 0.00506522 0.00141157 -2.44933e-05 
-0.000235959 0.0300338 1.18553e-12 -0.00336817 0.0407924 0.000141701 -0.00578603 0.0668387 0.0309686 
-0.087094 0.0916664 -4.58361e-05 -0.0872816 0.0909335 -5.32558e-06 4.36856e-08 0.0116196 -0.0212948 
0.00254224 -0.0019016 -0.000114572 -0.00789545 -0.00940603 0.00449787 -0.0543798 0.0925948 -0.024777 
-0.000466918 -0.00409132 -2.07034e-05 0.0478291 0.00168557 -0.0290318 -2.06271e-05 0.0171311 -0.0129766 
0.137694 -0.0613866 -0.0848034 0.00369501 -0.00650822 -5.21783e-05 2.19222e-05 0.0314119 4.99922e-05 
-0.119361 0.0351183 0.0325427 -0.00197168 -0.00739623 0.00027657 -0.00383456 -0.0222379 -0.000803229 
0.000109119 0.0227419 2.04563e-05 0.00803915 -0.023971 0.000140484 0.00703002 0.00373424 0.000143009 
-0.00609042 -0.0304949 8.15545e-09 -0.000470892 0.0187889 -0.000217594 0.0164824 -0.00837321 0.000287015 
7.94983e-05 -0.0121692 -0.000329033 0.000231469 0.018833 -1.98371e-05 -0.00186534 0.0172167 -3.06772e-05 
0.0125298 -0.00382382 -0.000252703 0.010843 -0.00426302 -0.00695865 0.0110005 -0.000811989 0.000788506 
-0.0249217 -0.0354483 -0.00753798 -0.00423494 -0.0242151 5.75064e-12 -0.000742367 0.0193484 4.0256e-05 
0.028622 -0.0215621 0.010395 -0.00952193 -0.00148267 0.00329917 0.00760328 -0.0126323 -0.000754239 
0.00264802 -0.000145093 4.83005e-06 0.0210335 -0.0160388 0.000839194 -0.00323484 0.00394337 -0.00202386 
-0.000138613 0.0197788 -0.000273079 -0.10736 0.128729 -0.0543813 0.0181961 -0.0377365 -0.0118139 
0.0464699 -0.0744935 0.0351636 0.469704 -0.0232252 -0.169049 0.0132312 -0.0173483 -0.0116585 
0.00192204 -0.000916887 8.1536e-05 0.00918167 -0.00891996 -0.000423652 0.2985 -0.282194 -0.13859 
0.0785793 -0.0147958 6.24955e-12 -0.000145389 -0.0400838 1.45477e-05 -0.00447972 -0.0128724 -0.000312559 
-0.0130678 -0.00236496 0.00346296 -0.00481219 -0.0249529 0.0177162 -0.00331983 -0.00851424 -0.000972589 
-0.0314635 0.0116338 1.7187e-05 0.00240266 -0.0018339 -2.79725e-05 0.00123221 -0.00647795 -2.00575e-05 
-0.000352052 -0.014517 3.70118e-12 0.00479495 -0.03974 -0.000137273 0.011983 -0.0325364 -1.77488e-05 
-0.00606221 -0.00879634 -0.000181813 0.00755865 -0.00895244 -1.77872e-05 -0.00294569 -0.0178466 -3.95397e-05 
-0.0456719 -0.0160466 -0.000304821 -0.00037675 -0.0147286 6.22669e-12 -0.00435543 0.0302306 2.28479e-05 
-0.0106415 -0.00344933 2.98091e-05 -0.204659 -0.094733 -1.28133e-12 -0.0222362 0.0172417 -4.76044e-06 
0.00188528 0.0341364 -5.10941e-05 0.0151928 -0.0209027 0.00807931 1.93521e-05 0.0319189 -2.95434e-05 
0.016234 -0.00162913 -0.000125168 0.0179769 -0.0211828 -0.0037273 -0.678926 0.105246 -0.198814 
-0.0332664 0.0693187 -0.000492378 -0.0169747 -0.0126348 0.00914383 3.46389e-05 0.0286255 9.59541e-05 
0.000148504 0.0258443 0.00937793 0.000444962 -0.00222683 5.22905e-05 0.00260908 -0.013002 -0.00097735 
0.00296388 0.000715597 -0.000232806 0.0192959 -0.029414 0.00114187 0.00436568 -0.00196017 0.000829744 
0.0234852 -0.0121213 -0.000213236 0.000508695 -0.0396536 0.00076222 0.00391808 -0.0252799 -0.000580678 
0.00359492 0.00147646 -0.000364018 0.0232347 -0.0180085 0.000314984 0.0257736 0.00699763 1.1871e-11 
0.0419959 -0.0295453 0.00147864 -0.0023733 -0.0178994 -0.03308 0.0496273 -0.065458 -0.0101661 
0.0143361 -0.0160216 -0.000871318 0.0326506 0.0130623 -0.0293926 0.0424421 0.00503629 0.0151358 
-0.00487378 -0.0155244 -0.013166 0.00864288 -0.0289645 0.00614016 0.0139842 -0.0293073 -0.000662229 
2.24243e-05 -0.00304286 -0.0107981 -0.00243547 0.000540639 0.00551343 0.00595892 -0.00672515 -5.8563e-05 
0.053073 -0.0205291 0.00591024 -1.07519e-05 -0.0224846 -0.0125033 0.0162913 0.00498288 -0.0301042 
0.0015443 -0.00454989 2.4089e-05 0.0320444 -0.00691044 -0.0106863 0.00353751 0.00024783 -0.000252013 
0.000161314 0.03139 0.000321881 0.000303908 -0.000948054 -0.000397775 0.0377718 -0.0300103 0.0255902 
0.00692655 -0.0789447 -1.36135e-11 0.0193483 0.025535 4.54893e-07 0.00158277 -0.00352945 0.000323923 
-0.0638061 -0.0281071 2.29659e-05 0.00818399 0.00752388 -0.010261 -0.00657472 -0.00536688 -0.0809412 
-0.0495604 -0.0220158 0.0136527 -0.0556894 -0.00287132 8.26137e-06 0.0142931 -0.00414602 -0.000423937 
0.00817764 0.000818855 0.000135126 0.00690592 -0.0828511 -0.000175533 0.00103781 -0.00524696 -0.000180214 
0.0842045 0.0118141 -0.000676828 -6.97379e-05 -0.00909478 2.05471e-05 0.0692683 -0.0580614 -2.50562e-06 
0.0657085 -0.0282726 6.32878e-05 -0.000501999 -0.00766032 -9.96152e-05 -0.000343212 0.0466056 -9.2029e-12 
-0.00104527 0.00171988 0.00354316 -0.00666236 -0.0161954 -2.21394e-05 -0.0482326 -0.0547848 -0.0428111 
-0.043464 0.00816383 1.05165e-11 -0.0125445 0.0453309 -1.01072e-11 -0.0266601 0.0060021 0.000202457 
0.0367701 0.01752 9.21241e-05 -0.0176527 0.0169775 2.39169e-05 0.0348509 -0.061844 0.0505141 
0.00283014 -0.0147169 -0.00629194 -0.0111634 0.0117985 -0.022161 -0.0236813 -0.00559074 1.03943e-05 
5.50699e-05 -0.00929262 -1.99779e-05 0.000299573 0.043904 -0.0228173 0.000179681 -0.000690914 -2.29609e-05 
6.08939e-05 0.000900009 8.84967e-05 0.000133434 -0.00941341 7.1877e-05 0.0001169 0.00182216 -1.82898e-05 
0.00705835 0.0269248 -1.15296e-11 -0.0039896 0.000974293 -0.00018971 -0.0013211 0.00666124 0.000120719 
-0.0103365 0.0054418 -0.000157911 -0.00620584 -0.00550433 -9.96086e-05 0.0140694 0.00775244 0.000666805 
0.0331412 0.020499 1.73007e-11 0.00965753 -0.00675782 -0.00246995 -0.028495 -0.000793329 -5.83322e-10 
0.00033481 0.00265127 7.09502e-05 0.00215759 -0.000453106 -0.000601806 -0.00678709 0.000677587 0.00127565 
0.00110569 -0.006674 -0.000114384 -0.00929986 -0.00936302 0.00496327 0.0128967 -0.016439 -0.000241038 
0.00276442 0.00545833 -0.0021934 -0.0757453 -0.00944882 -6.45472e-12 0.000472442 -0.00703893 0.00209278 
-0.00295635 0.00319616 -0.00167841 -0.000647569 -0.00662324 1.23525e-10 -0.0062788 0.00225019 -0.000351037 
0.0111653 -0.0031117 -0.00397129 -0.0187553 0.0248848 -3.16652e-06 -0.0198025 -0.0489697 1.39276e-05 
-0.0092282 -0.0115752 -0.0206813 0.0622869 0.0066086 0.0620952 0.0871197 0.000137376 1.14143e-08 
-5.67613e-05 -0.00923292 2.12321e-05 -0.00275319 0.00111515 -0.00105306 -0.0191127 -0.0427972 5.85681e-05 
0.000567087 -0.0136447 0.00101769 -0.0142114 -0.0142399 -7.6864e-06 -0.00020441 -0.0112474 -1.80402e-05 
-3.41007e-05 -0.0269534 5.43101e-12 -0.0660293 -0.0338002 -0.000141604 -0.00642532 -0.0408068 -3.29489e-07 
8.45742e-05 -0.00930864 3.53061e-06 -0.00015696 -0.00931894 3.32856e-06 -0.00152721 -0.0136125 0.000179064 
-0.0151544 -0.00882031 -0.00366649 0.0242269 -0.01323 -0.00147072 -0.0184589 -0.0421428 0.000645206 
0.0160858 -0.0343249 0.00023802 -0.0156009 -0.0153017 -0.00963883 -0.00791282 -0.0455079 0.000252044 
0.00951848 -0.0740987 -0.00776176 -0.0196936 -0.0761708 -0.0461885 -0.00163378 -0.0185229 -0.00957946 
-0.112718 0.09894 -0.0346885 0.0390505 0.213507 -0.000193522 0.0266267 -0.0105174 0.00705176 
0.0321316 -0.0366332 0.0284902 -0.0540904 0.0794423 -0.0132808 -0.0225116 0.00483568 -0.00194475 
0.00772494 -0.0268099 -0.0120597 -0.0425612 0.0138285 4.36778e-05 0.0260897 0.00381504 0.000124411 
-0.0231194 -0.00459958 0.00914768 5.74724e-05 -0.00536475 -0.000116347 0.0189272 -0.00840961 -0.00306075 
-0.00641138 0.0249482 -4.34029e-05 -0.000278375 -0.00496618 -0.0001492 0.00349773 -0.00732838 -0.000134596 
0.011715 0.00101216 0.000166024 0.0216222 0.00259711 -0.000258614 0.0205359 0.00409562 0.000461781 
0.0193076 -0.0187303 -6.63836e-05 0.0246162 0.00504722 5.28165e-05 0.0212152 -0.0223192 -1.18013e-05 
0.0220956 -0.0188199 3.37694e-05 0.0197391 0.00459727 0.000231303 -0.0155222 0.0168712 -2.54336e-06 
-0.276797 0.174743 -0.160783 0.00894632 -0.00569703 0.000107861 0.000344451 -0.0120744 -0.00932767 
-0.0677626 0.0110316 -0.000546747 0.00347426 -0.0157579 0.00904022 -0.00900367 0.00728878 -0.00807956 
0.032768 -0.0339232 3.70118e-12 0.00141638 0.025348 0.000100702 -3.1575e-05 -0.0340632 0.0059302 
0.0258392 -0.00680534 0.0070974 0.0429667 0.0126456 0.00213871 0.0161368 -0.0108946 -0.000483581 
0.0409203 -0.00349308 -0.0181723 0.00956978 0.00837569 -0.000719752 0.0338559 -0.0534104 0.000560213 
-0.000903307 -0.0146712 0.000405399 0.0343483 -0.0531651 -0.000222034 0.0166501 -0.00342385 -0.000434649 
-0.0151079 -0.0257268 -2.85462e-12 0.0248956 6.48416e-05 0.000344587 0.0511941 -0.0011801 0.0016262 
-0.000106087 -0.0355083 4.9794e-05 -0.000113457 -0.0310473 1.39107e-05 0.0395269 0.0163035 -3.89723e-05 
0.0185845 -0.10509 1.58208e-06 0.0223442 -0.00515141 8.09345e-05 -0.0101613 -0.0375074 0.0191214 
7.60066e-05 -0.00832478 -3.92077e-05 -0.0143531 -0.00803846 7.29656e-05 0.0243562 -0.0236289 5.17848e-05 
0.000766499 -0.0113604 -0.00173757 -0.0450143 -0.0372806 -0.0129865 8.32646e-05 -0.0108588 0.000998218 
0.00198327 -0.00927977 -0.00176819 -0.00285629 0.0176645 -0.0204132 -1.46961e-05 -0.0108571 0.00220048 
-0.0086531 -0.0112231 -0.0217678 -9.20718e-05 -0.0106048 0.00335143 -0.0132434 -0.0015489 -0.000116555 
-0.000740881 -0.0163527 0.0042352 0.0045795 -0.02139 -0.0245813 0.0151562 -0.0140315 -0.0038521 
2.60914e-05 -0.0101805 -0.00113415 -0.00448578 -0.00910234 3.57447e-05 0.00470048 -0.00729154 -1.64742e-05 
-0.00678242 -0.0149416 0.00276486 -0.00949823 0.00627606 5.10944e-06 -0.00643535 -0.0115313 4.58709e-07 
0.0041566 -0.00883898 -3.68463e-06 -0.0516087 0.0532162 1.54947e-11 -0.000748974 -0.00815627 7.31424e-05 
0.00039726 -0.00806705 1.571e-05 -0.0132123 0.000553062 -0.000175206 7.35338e-05 0.000783802 1.13574e-11 
0.0234019 0.016843 -5.12018e-06 -0.00421774 -0.0133743 4.47131e-05 0.0350565 -0.02242 -7.87415e-13 
-0.00167319 -0.0101784 -7.00454e-05 5.06285e-05 -0.0088548 2.809e-05 -0.0345623 -0.0408397 -0.00477045 
5.43282e-05 -0.00731983 5.10615e-05 -0.0027761 -0.0710078 -0.0459153 0.0108339 -0.0240491 0.00160573 