# vtk DataFile Version 4.0
Generated by LIGGGHTS
ASCII
DATASET POLYDATA
POINTS 1452 float
0.00883602 0.00642943 0.0116573 0.00292458 0.00459217 0.0108755 0.00942916 0.00271017 0.0121393 
0.00334528 0.0081187 0.0116579 0.000958321 0.00782428 0.0108566 0.00671596 0.00748395 0.0146255 
0.0115712 0.00145884 0.0147458 0.00489594 0.00447633 0.0125509 0.0057805 0.00250871 0.0116628 
0.0029486 0.00710307 0.0142021 0.00268756 0.00319525 0.0136696 0.00693432 0.00361614 0.0133309 
0.00557573 0.00287357 0.0139606 0.00723119 0.0081124 0.0107704 0.000773584 0.00361147 0.0156924 
0.0022527 0.00284058 0.0158386 0.00193669 0.00466434 0.0163064 0.0124346 0.0051544 0.0116372 
0.0123204 0.00804814 0.011883 0.0131888 0.00166028 0.0112839 0.015665 0.00583687 0.01113 
0.0211098 0.00396181 0.0114587 0.0172883 0.00356521 0.0114587 0.0184819 0.00610689 0.0112839 
0.0228005 0.00128608 0.0112205 0.0151626 0.00107186 0.0108624 0.0143012 0.00413386 0.0107691 
0.0194134 0.00119658 0.0109784 0.0217211 0.00664946 0.0117202 0.0158177 0.000924417 0.0146191 
0.0133088 0.00794224 0.0153426 0.0172778 0.00266868 0.0157861 0.0206174 0.00777379 0.0161146 
0.00995491 0.00837618 0.013658 0.00734702 0.0121198 0.0113159 0.00901852 0.015362 0.0121393 
0.00219654 0.0162748 0.0107705 0.00476137 0.0110203 0.0107058 0.0117582 0.0139372 0.0132642 
0.00719405 0.00909874 0.0120876 0.00574173 0.0147765 0.0140242 0.00968947 0.0115161 0.013012 
0.00416065 0.0110351 0.0127842 0.00335675 0.0134016 0.0134706 0.00146475 0.0115149 0.0139576 
0.00769027 0.0119276 0.0145287 0.000855149 0.015419 0.0148462 0.00481848 0.0161926 0.0108755 
0.0109545 0.0120452 0.0157817 0.00286728 0.0144581 0.015962 0.0178508 0.00840547 0.0109987 
0.023061 0.00980557 0.0108876 0.0150901 0.0138583 0.0112838 0.0125245 0.0118917 0.0117357 
0.0196541 0.0122865 0.010995 0.0155528 0.00992409 0.0110071 0.0161639 0.0160798 0.0109295 
0.0229411 0.0161536 0.0110508 0.0180769 0.0105441 0.0111239 0.0221017 0.0122352 0.0118195 
0.0171535 0.0130431 0.0106778 0.0204313 0.0102383 0.0130171 0.0155977 0.0104661 0.0130795 
0.0183793 0.00904754 0.0132052 0.0228229 0.00940845 0.0136718 0.0217411 0.0149251 0.0139157 
0.0159196 0.0142536 0.0141148 0.0184819 0.0122055 0.0138963 0.0140803 0.0141096 0.0149066 
0.0155332 0.0116075 0.0160258 0.0111827 0.0167636 0.0139297 0.00708516 0.0235456 0.0114741 
0.00351312 0.0197386 0.0109944 0.0109992 0.0241866 0.010678 0.00288264 0.0219085 0.0112893 
0.00887445 0.0219418 0.010907 0.00581842 0.0210001 0.0113172 0.00123254 0.0198464 0.0120492 
0.00444144 0.0232792 0.012834 0.0027838 0.0173875 0.0136124 0.00752008 0.0188469 0.0111783 
0.008 0.0181222 0.0129154 0.00959355 0.0215053 0.0129295 0.0116721 0.0243078 0.0129955 
0.00675741 0.023402 0.0142224 0.00895689 0.0176508 0.014334 0.00689174 0.0173896 0.0141924 
0.00316825 0.016947 0.0153049 0.00220238 0.0231027 0.0153226 0.00630097 0.0208368 0.0152365 
0.00128124 0.017966 0.0157019 0.0129563 0.0175758 0.0117262 0.0147998 0.0226024 0.0109957 
0.022581 0.0227675 0.0108755 0.0171018 0.0248464 0.0110527 0.0197327 0.0200362 0.0112839 
0.0132893 0.0206871 0.0114913 0.0189998 0.0213236 0.0132651 0.0155168 0.0219405 0.0124754 
0.0198545 0.0244518 0.0111393 0.0214065 0.0172305 0.0106773 0.0155908 0.0236565 0.0136489 
0.0182806 0.0223442 0.011187 0.0209217 0.0223702 0.0133429 0.0184112 0.0245326 0.013077 
0.0221581 0.019671 0.0132586 0.016385 0.0194974 0.0145596 0.0151545 0.0245588 0.0113567 
0.0149728 0.0219241 0.0154097 0.0186525 0.0202185 0.0148862 0.0231247 0.0184127 0.0152659 
0.0128177 0.0184317 0.0156092 0.0147347 0.0168925 0.0163525 0.0209562 0.0209413 0.0164666 
0.0103091 0.0268189 0.0116574 0.011474 0.0309756 0.010525 0.0108345 0.0295542 0.0107705 
0.00688873 0.0283214 0.0112839 0.0092696 0.0316573 0.0111508 0.0012976 0.0324841 0.0115866 
0.00324314 0.0259397 0.0112839 0.000900116 0.0257758 0.0110135 0.0011298 0.0295091 0.0112255 
0.00535852 0.0268068 0.0116468 0.00467256 0.0310692 0.013207 0.00218462 0.0262564 0.0145592 
0.0115479 0.028499 0.0152439 0.00764943 0.0260073 0.0151838 0.0111379 0.0257829 0.0157255 
0.0112895 0.0317495 0.0155337 0.00959956 0.0303047 0.0158284 0.0205389 0.0270237 0.0112979 
0.014132 0.0280727 0.0111308 0.0129352 0.0310327 0.0109944 0.0225405 0.0314658 0.0114587 
0.018548 0.0316887 0.011883 0.0214501 0.0251872 0.0106843 0.0144071 0.0322663 0.0108828 
0.0209131 0.0329177 0.0119352 0.0124789 0.0278655 0.0121274 0.0150402 0.0305143 0.0123353 
0.020147 0.0287077 0.0135877 0.0215316 0.0297127 0.0124344 0.014801 0.0271476 0.0135784 
0.0223421 0.0250543 0.01286 0.0130807 0.0265309 0.0147313 0.0203126 0.0323402 0.0148793 
0.0153555 0.0267992 0.0155632 0.0174623 0.0323132 0.015685 0.013794 0.0325319 0.0164338 
0.00449821 0.0335239 0.0110022 0.00710973 0.0402909 0.0108778 0.00346943 0.0373032 0.0108815 
0.00707189 0.0353316 0.010678 0.0107934 0.0387202 0.0121397 0.000887853 0.0345838 0.0108765 
0.00944549 0.0340625 0.0111983 0.0118378 0.0395439 0.0145989 0.0058901 0.0372853 0.0116582 
0.00874254 0.0416896 0.0113363 0.00596503 0.0342737 0.0122605 0.00247721 0.0357579 0.0126412 
0.0073361 0.039758 0.0133472 0.0116677 0.0338558 0.0150417 0.00474416 0.0400877 0.0143628 
0.00349409 0.0373838 0.0151161 0.0103324 0.037506 0.0150596 0.00193285 0.0405558 0.0154271 
0.0119937 0.0387224 0.0158073 0.00518257 0.0346808 0.0165482 0.0177857 0.0379036 0.0110169 
0.0211795 0.041641 0.0112839 0.0229943 0.0342058 0.0109962 0.0146568 0.0361174 0.0118846 
0.0159452 0.0388379 0.0109944 0.0130434 0.0413439 0.0108632 0.0208222 0.0385024 0.011883 
0.0209383 0.0351888 0.0123128 0.023227 0.0361203 0.0131334 0.0173585 0.0364704 0.0128158 
0.0186057 0.0400764 0.0117645 0.0220824 0.038307 0.0147991 0.0152801 0.0371541 0.0163508 
0.0228415 0.0337586 0.0157103 0.0232726 0.0372455 0.0160927 0.0226725 0.0416187 0.0160823 
0.00657873 0.0476838 0.0108758 0.00436525 0.0482207 0.0114648 0.00856018 0.0467983 0.0109944 
0.00545586 0.0455125 0.0115575 0.0076879 0.0442482 0.01113 0.0105839 0.0445887 0.0120351 
0.00505571 0.0500123 0.0128006 0.00175089 0.0417445 0.0117574 0.00129574 0.0492288 0.0123194 
0.00625708 0.0481767 0.0130245 0.0035423 0.0472006 0.0133608 0.00549773 0.0427086 0.0133023 
0.0172993 0.0425292 0.01113 0.0162127 0.044493 0.0112122 0.0139264 0.0431249 0.010678 
0.0143671 0.0459339 0.0112839 0.0225443 0.0455754 0.0107709 0.0204826 0.0481536 0.0124306 
0.0156408 0.0448474 0.0142832 0.0133793 0.0464155 0.0132799 0.0183304 0.0447069 0.0112249 
0.016634 0.0474207 0.0124965 0.0218123 0.045018 0.0142237 0.0130939 0.0427248 0.0145454 
0.0194679 0.0428399 0.0157752 0.00217018 0.0566907 0.0105965 0.00383585 0.0539205 0.0109612 
0.00771255 0.0529338 0.0109944 0.00414434 0.0575154 0.0111824 0.0102627 0.0547585 0.0114787 
0.00105431 0.0511558 0.010998 0.00946508 0.0564218 0.0117967 0.00486905 0.0526547 0.0128836 
0.00656838 0.0555692 0.012409 0.0113834 0.0510835 0.0106926 0.00816922 0.050662 0.0142933 
0.00470989 0.0507496 0.0141475 0.00129915 0.0553765 0.0146877 0.00885992 0.0551144 0.0145971 
0.00302693 0.0583033 0.0152203 0.00678881 0.0537653 0.0155027 0.0226618 0.0510305 0.0144019 
0.0165437 0.0502137 0.011517 0.0218747 0.057392 0.0108754 0.0132568 0.0545513 0.0109174 
0.0154641 0.0533589 0.0112839 0.0194436 0.0572983 0.0108755 0.0180527 0.0542694 0.0114899 
0.0224414 0.0559457 0.0108047 0.0136918 0.057972 0.0109079 0.0175784 0.0564759 0.010893 
0.0120189 0.0563806 0.0123816 0.0207773 0.0542437 0.0135901 0.0184542 0.0514093 0.0131001 
0.0135239 0.0501626 0.0151666 0.0154216 0.0550163 0.0152962 0.0121093 0.0547562 0.0158589 
0.00616142 0.0588816 0.0106952 0.0113084 0.059745 0.0111305 0.00924167 0.0646967 0.01113 
0.00703747 0.0616237 0.0111464 0.00704586 0.0663773 0.0112839 0.00197196 0.0637593 0.0109944 
0.00981628 0.0620623 0.0109061 0.00338875 0.0600121 0.0115015 0.00454796 0.0636221 0.0111864 
0.00303098 0.0657704 0.0137015 0.00661878 0.0636561 0.0125021 0.0112743 0.0665768 0.0133897 
0.00199965 0.0665614 0.0114587 0.00811508 0.0590034 0.0140782 0.00316712 0.0612651 0.0146926 
0.00261267 0.0638779 0.0153574 0.00947381 0.0634546 0.016522 0.0227141 0.0615188 0.0112841 
0.0228696 0.0591147 0.0111301 0.0125125 0.0629299 0.0109944 0.01962 0.0601749 0.0107705 
0.0139261 0.0610352 0.01113 0.0143938 0.0645765 0.0113432 0.0181012 0.0652958 0.0107335 
0.0207856 0.066274 0.0118878 0.0165467 0.0627135 0.0107957 0.0169057 0.0610746 0.0124445 
0.0156475 0.0585478 0.0123313 0.0165264 0.0657096 0.0122636 0.0224021 0.0635965 0.013067 
0.0207939 0.0612651 0.0120059 0.023033 0.0613825 0.0141126 0.0218551 0.0590391 0.0137451 
0.016714 0.0635232 0.0141308 0.0210417 0.0663192 0.0147558 0.0209484 0.0645317 0.0145027 
0.020156 0.0618525 0.0148383 0.0153094 0.0664789 0.0156727 0.00976936 0.067802 0.0109944 
0.00450887 0.0707631 0.0109944 0.00743223 0.0691778 0.0107705 0.00496819 0.0676712 0.01113 
0.00938029 0.0704313 0.0111276 0.00550481 0.0731226 0.0114137 0.00414249 0.0712295 0.012833 
0.00915865 0.0707318 0.0127545 0.00852214 0.0739399 0.0126997 0.0013011 0.0671913 0.0147921 
0.0111037 0.0706395 0.0126438 0.00193365 0.071188 0.0145526 0.0119774 0.0684173 0.0112839 
0.00885253 0.0678302 0.0164059 0.0179345 0.067176 0.01113 0.0162707 0.0691677 0.011795 
0.0147175 0.0711188 0.010678 0.0201574 0.0723838 0.0114696 0.014587 0.0670241 0.0108252 
0.0195826 0.0696166 0.0111709 0.0217023 0.0707441 0.0108988 0.0194007 0.0723618 0.0138523 
0.0144344 0.0728633 0.0139882 0.0186052 0.0689957 0.0142913 0.022956 0.0682447 0.0142919 
0.0140471 0.0670598 0.0145607 0.0182856 0.0733367 0.0160633 0.0229404 0.0739582 0.0152653 
0.0206828 0.0724701 0.0165597 0.00482666 0.00504311 0.022571 0.00258364 0.00234195 0.0176336 
0.010789 0.00549516 0.0206059 0.00640583 0.00248724 0.0218071 0.00285892 0.00564683 0.0187801 
0.00255084 0.00728437 0.020271 0.000881995 0.00648016 0.018771 0.00643112 0.00715306 0.0195924 
0.00893151 0.00483137 0.0222519 0.00395416 0.00289098 0.0226222 0.00127525 0.0037768 0.0230416 
[...]
POINT_DATA 1452
FIELD FieldData 7
id 1 1452 int
35 125 403 461 47 442 45 707 399 
65 549 271 304 235 512 446 434 449 
367 114 290 197 5 412 568 599 332 
140 509 572 553 660 934 373 15 68 
83 510 408 654 781 305 336 951 473 
582 827 355 390 41 56 232 414 36 
400 753 105 475 710 816 754 824 340 
205 177 180 569 19 910 397 281 98 
394 110 310 794 4 500 54 790 42 
87 429 638 406 209 179 353 583 740 
802 227 91 307 280 443 155 344 761 
370 354 112 190 749 84 456 689 58 
828 380 436 1092 846 249 188 225 100 
111 151 170 479 261 371 93 103 991 
721 823 254 629 556 74 22 34 301 
285 422 96 66 780 31 691 186 777 
263 682 739 176 44 294 349 3 196 
106 450 20 226 283 350 273 626 519 
245 701 330 48 1131 838 919 738 7 
55 99 293 265 276 338 698 127 95 
181 946 296 899 13 80 78 343 32 
24 407 63 206 684 6 533 494 417 
46 21 253 139 189 491 604 795 565 
238 627 328 594 109 128 163 279 228 
53 873 668 559 43 822 389 835 378 
401 308 242 57 88 121 94 135 564 
244 384 487 493 560 430 706 679 38 
40 284 233 318 311 574 608 495 17 
694 79 661 224 490 579 508 387 86 
240 322 325 382 210 138 323 85 709 
82 216 269 820 501 375 352 28 470 
266 609 171 136 51 29 287 203 621 
195 156 586 64 611 358 814 69 260 
148 314 335 757 184 457 571 158 525 
14 207 134 839 1147 272 933 1176 405 
298 162 590 857 404 704 73 719 936 
423 980 675 894 643 425 1154 521 779 
531 185 246 464 59 118 208 529 26 
192 840 485 635 243 270 1004 315 657 
164 345 187 743 12 420 720 1014 507 
637 379 782 792 52 10 681 1069 75 
327 448 517 230 1246 60 89 277 146 
1377 1386 237 221 764 113 366 37 603 
663 27 566 392 1308 395 1155 1389 341 
129 137 884 77 711 388 853 945 601 
1226 478 204 447 1316 1318 1321 102 1134 
107 214 2 372 1109 1034 468 876 767 
833 612 229 591 540 605 1267 674 104 
829 1197 766 1430 489 940 411 1066 357 
856 965 92 201 199 518 33 23 116 
1053 537 472 1129 554 320 1261 686 324 
11 319 901 1347 713 634 124 1 1022 
1048 952 211 268 538 133 356 236 360 
459 715 480 291 1254 267 1029 737 1038 
437 1125 885 630 1159 141 339 914 241 
690 716 198 451 664 927 1407 381 165 
695 897 115 702 499 161 958 391 143 
615 150 1212 645 544 255 72 49 160 
234 580 302 1312 1272 1447 672 636 306 
778 359 1149 122 149 659 511 969 1242 
1343 1007 212 561 1388 988 347 644 1093 
841 848 680 971 976 852 595 797 418 
809 1101 386 252 1201 257 717 222 588 
725 613 259 1353 474 410 773 1010 142 
514 602 427 71 918 584 562 872 784 
247 292 1188 157 396 699 275 943 915 
683 585 152 174 1039 1193 1207 97 67 
759 39 1341 166 251 930 834 1165 662 
979 632 462 218 363 424 1145 728 1346 
1054 1395 916 1315 1051 640 215 1148 1276 
708 312 904 178 903 1423 467 1026 1032 
505 997 1050 607 1088 796 482 620 1156 
9 1283 1185 843 911 606 173 374 282 
1100 1285 1288 1122 727 321 1219 1390 992 
545 1070 649 524 862 731 1112 220 617 
62 928 1209 377 61 477 256 219 1394 
557 763 798 787 278 101 1164 653 1256 
123 1370 1140 1382 949 1405 1422 484 274 
1133 994 837 957 213 818 1205 669 1210 
295 726 182 1003 1301 169 1348 575 542 
299 1216 733 723 900 1062 676 25 548 
922 855 81 1005 147 964 1387 1412 573 
1016 444 854 859 633 1015 744 398 438 
458 880 342 108 650 758 217 1296 578 
956 619 200 771 1028 546 1102 250 145 
793 696 528 800 1120 1233 144 419 191 
193 955 678 1338 175 1042 421 346 361 
132 783 1240 262 286 248 90 973 1313 
1331 844 126 465 431 1379 729 333 805 
1018 1035 1099 1103 845 647 1190 1229 1252 
409 1337 1192 223 830 616 532 1438 309 
30 598 117 577 76 1141 202 329 1175 
1203 1237 1262 868 705 476 326 810 1391 
1396 364 1052 1083 1115 1030 120 1243 907 
520 752 688 365 504 172 736 804 527 
807 861 685 1108 881 1121 1127 926 1255 
667 1335 1356 1385 258 813 982 1410 651 
289 677 1074 288 891 496 167 746 658 
452 765 1220 317 70 618 426 1310 547 
1350 440 1381 1244 368 1428 1441 481 536 
119 303 1104 313 168 1258 1358 433 1363 
1012 1041 896 1426 1433 826 869 892 1027 
666 1087 231 334 1167 1171 614 656 972 
297 724 714 183 463 264 300 453 1253 
748 882 539 16 1045 8 1065 687 1073 
402 439 18 1206 393 775 1292 416 428 
1309 466 130 642 874 153 541 954 1001 
523 769 131 50 376 576 1228 1235 159 
847 788 917 1403 1411 1000 486 692 920 
924 497 1059 492 975 825 628 886 1398 
1409 610 670 722 974 1098 1172 526 1260 
631 1047 1344 552 1013 1126 1136 902 1182 
535 1270 1361 742 774 1372 1056 1179 503 
913 977 750 454 1057 875 1199 831 718 
581 1306 1349 1365 1094 1400 801 929 867 
671 435 1151 756 1169 1186 1214 1227 938 
515 755 1392 1432 735 154 624 502 1064 
1068 348 596 712 1225 534 1282 1200 1336 
648 652 1380 1393 1049 1437 786 432 950 
1033 732 488 1076 983 1232 498 665 592 
623 1383 1397 939 842 1096 760 870 993 
1037 889 1089 751 1174 960 1304 455 1326 
908 1329 1333 849 1067 962 878 887 469 
369 362 1091 1072 1281 673 1307 530 947 
734 1401 1420 851 316 1077 1107 1142 516 
1218 865 817 1230 1264 625 730 1289 1332 
1399 1406 963 995 998 331 513 194 1238 
1259 1268 986 1303 1360 1375 1429 772 1081 
812 921 239 1002 558 337 1118 1138 415 
1009 1293 1311 1324 555 700 819 791 460 
1025 1110 506 646 1058 937 1060 821 776 
1023 693 1079 1124 471 543 1187 597 570 
1290 1376 860 1378 953 770 961 1031 383 
587 563 351 1146 1160 1196 941 1257 522 
985 741 1150 1413 935 445 942 655 803 
703 622 1019 567 1006 1198 639 1222 600 
589 1139 483 745 836 898 641 551 441 
1162 550 1280 697 1367 811 863 883 1017 
1020 1021 785 1071 413 385 593 1250 1279 
1286 1319 895 806 879 1084 1123 1322 1327 
1342 1374 768 864 999 1040 1063 1075 1113 
1117 1130 1224 1328 1368 932 1204 1231 1236 
1245 1248 1340 1416 1424 1431 970 1105 1163 
1277 1339 1351 1384 1418 1439 1443 762 789 
925 978 987 1024 1152 1153 1161 1184 1217 
1269 1298 1299 893 959 996 1044 1061 1086 
1137 1181 1194 1294 1323 1325 1373 1448 905 
906 984 1036 1202 1215 1284 1434 866 1043 
1144 1166 1173 1305 1415 1055 1078 1095 1211 
1234 1247 1251 1265 1295 1302 1369 1427 1442 
888 966 968 1195 1221 1275 1287 1291 1314 
1364 1366 808 931 944 1011 1116 1170 1297 
1330 1359 1435 871 981 989 1178 1213 1223 
1278 1354 1357 1362 1421 815 832 850 912 
1157 1168 1249 1271 1408 1414 799 990 1090 
1135 1143 1241 1273 1274 1300 1317 1352 1355 
877 923 1008 1085 1114 1119 1128 1180 1189 
1239 1436 1440 1445 858 948 967 1080 1082 
1097 1132 1183 1208 1266 1320 1402 1419 747 
1106 1111 1263 1371 1417 1446 890 909 1046 
1158 1177 1191 1334 1345 1404 1425 1444 1449 
1450 1451 1452 
type 1 1452 int
1 1 1 1 1 1 1 1 1 
1 1 1 1 1 1 1 1 1 
1 1 1 1 1 1 1 1 1 
1 1 1 1 1 1 1 1 1 
1 1 1 1 1 1 1 1 1 
1 1 1 1 1 1 1 1 1 
1 1 1 1 1 1 1 1 1 
1 1 1 1 1 1 1 1 1 
1 1 1 1 1 1 1 1 1 
1 1 1 1 1 1 1 1 1 
1 1 1 1 1 1 1 1 1 
1 1 1 1 1 1 1 1 1 
1 1 1 1 1 1 1 1 1 
1 1 1 1 1 1 1 1 1 
1 1 1 1 1 1 1 1 1 
1 1 1 1 1 1 1 1 1 
1 1 1 1 1 1 1 1 1 
1 1 1 1 1 1 1 1 1 
1 1 1 1 1 1 1 1 1 
1 1 1 1 1 1 1 1 1 
1 1 1 1 1 1 1 1 1 
1 1 1 1 1 1 1 1 1 
1 1 1 1 1 1 1 1 1 
1 1 1 1 1 1 1 1 1 
1 1 1 1 1 1 1 1 1 
1 1 1 1 1 1 1 1 1 
1 1 1 1 1 1 1 1 1 
1 1 1 1 1 1 1 1 1 
1 1 1 1 1 1 1 1 1 
1 1 1 1 1 1 1 1 1 
1 1 1 1 1 1 1 1 1 
1 1 1 1 1 1 1 1 1 
1 1 1 1 1 1 1 1 1 
1 1 1 1 1 1 1 1 1 
1 1 1 1 1 1 1 1 1 
1 1 1 1 1 1 1 1 1 
1 1 1 1 1 1 1 1 1 
1 1 1 1 1 1 1 1 1 
1 1 1 1 1 1 1 1 1 
1 1 1 1 1 1 1 1 1 
1 1 1 1 1 1 1 1 1 
1 1 1 1 1 1 1 1 1 
1 1 1 1 1 1 1 1 1 
1 1 1 1 1 1 1 1 1 
1 1 1 1 1 1 1 1 1 
1 1 1 1 1 1 1 1 1 
1 1 1 1 1 1 1 1 1 
1 1 1 1 1 1 1 1 1 
1 1 1 1 1 1 1 1 1 
1 1 1 1 1 1 1 1 1 
1 1 1 1 1 1 1 1 1 
1 1 1 1 1 1 1 1 1 
1 1 1 1 1 1 1 1 1 
1 1 1 1 1 1 1 1 1 
1 1 1 1 1 1 1 1 1 
1 1 1 1 1 1 1 1 1 
1 1 1 1 1 1 1 1 1 
1 1 1 1 1 1 1 1 1 
1 1 1 1 1 1 1 1 1 
1 1 1 1 1 1 1 1 1 
1 1 1 1 1 1 1 1 1 
1 1 1 1 1 1 1 1 1 
1 1 1 1 1 1 1 1 1 
1 1 1 1 1 1 1 1 1 
1 1 1 1 1 1 1 1 1 
1 1 1 1 1 1 1 1 1 
1 1 1 1 1 1 1 1 1 
1 1 1 1 1 1 1 1 1 
1 1 1 1 1 1 1 1 1 
1 1 1 1 1 1 1 1 1 
1 1 1 1 1 1 1 1 1 
1 1 1 1 1 1 1 1 1 
1 1 1 1 1 1 1 1 1 
1 1 1 1 1 1 1 1 1 
1 1 1 1 1 1 1 1 1 
1 1 1 1 1 1 1 1 1 
1 1 1 1 1 1 1 1 1 
1 1 1 1 1 1 1 1 1 
1 1 1 1 1 1 1 1 1 
1 1 1 1 1 1 1 1 1 
1 1 1 1 1 1 1 1 1 
1 1 1 1 1 1 1 1 1 
1 1 1 1 1 1 1 1 1 
1 1 1 1 1 1 1 1 1 
1 1 1 1 1 1 1 1 1 
1 1 1 1 1 1 1 1 1 
1 1 1 1 1 1 1 1 1 
1 1 1 1 1 1 1 1 1 
1 1 1 1 1 1 1 1 1 
1 1 1 1 1 1 1 1 1 
1 1 1 1 1 1 1 1 1 
1 1 1 1 1 1 1 1 1 
1 1 1 1 1 1 1 1 1 
1 1 1 1 1 1 1 1 1 
1 1 1 1 1 1 1 1 1 
1 1 1 1 1 1 1 1 1 
1 1 1 1 1 1 1 1 1 
1 1 1 1 1 1 1 1 1 
1 1 1 1 1 1 1 1 1 
1 1 1 1 1 1 1 1 1 
1 1 1 1 1 1 1 1 1 
1 1 1 1 1 1 1 1 1 
1 1 1 1 1 1 1 1 1 
1 1 1 1 1 1 1 1 1 
1 1 1 1 1 1 1 1 1 
1 1 1 1 1 1 1 1 1 
1 1 1 1 1 1 1 1 1 
1 1 1 1 1 1 1 1 1 
1 1 1 1 1 1 1 1 1 
1 1 1 1 1 1 1 1 1 
1 1 1 1 1 1 1 1 1 
1 1 1 1 1 1 1 1 1 
1 1 1 1 1 1 1 1 1 
1 1 1 1 1 1 1 1 1 
1 1 1 1 1 1 1 1 1 
1 1 1 1 1 1 1 1 1 
1 1 1 1 1 1 1 1 1 
1 1 1 1 1 1 1 1 1 
1 1 1 1 1 1 1 1 1 
1 1 1 1 1 1 1 1 1 
1 1 1 1 1 1 1 1 1 
1 1 1 1 1 1 1 1 1 
1 1 1 1 1 1 1 1 1 
1 1 1 1 1 1 1 1 1 
1 1 1 1 1 1 1 1 1 
1 1 1 1 1 1 1 1 1 
1 1 1 1 1 1 1 1 1 
1 1 1 1 1 1 1 1 1 
1 1 1 1 1 1 1 1 1 
1 1 1 1 1 1 1 1 1 
1 1 1 1 1 1 1 1 1 
1 1 1 1 1 1 1 1 1 
1 1 1 1 1 1 1 1 1 
1 1 1 1 1 1 1 1 1 
1 1 1 1 1 1 1 1 1 
1 1 1 1 1 1 1 1 1 
1 1 1 1 1 1 1 1 1 
1 1 1 1 1 1 1 1 1 
1 1 1 1 1 1 1 1 1 
1 1 1 1 1 1 1 1 1 
1 1 1 1 1 1 1 1 1 
1 1 1 1 1 1 1 1 1 
1 1 1 1 1 1 1 1 1 
1 1 1 1 1 1 1 1 1 
1 1 1 1 1 1 1 1 1 
1 1 1 1 1 1 1 1 1 
1 1 1 1 1 1 1 1 1 
1 1 1 1 1 1 1 1 1 
1 1 1 1 1 1 1 1 1 
1 1 1 1 1 1 1 1 1 
1 1 1 1 1 1 1 1 1 
1 1 1 1 1 1 1 1 1 
1 1 1 1 1 1 1 1 1 
1 1 1 1 1 1 1 1 1 
1 1 1 1 1 1 1 1 1 
1 1 1 1 1 1 1 1 1 
1 1 1 1 1 1 1 1 1 
1 1 1 1 1 1 1 1 1 
1 1 1 1 1 1 1 1 1 
1 1 1 1 1 1 1 1 1 
1 1 1 1 1 1 1 1 1 
1 1 1 
i 3 1452 int
0 0 0 0 0 0 0 0 0 
0 0 0 0 0 0 0 0 0 
0 0 0 0 0 0 0 0 0 
0 0 0 0 0 0 0 0 0 
0 0 0 0 0 0 0 0 0 
0 0 0 0 0 0 0 0 0 
0 0 0 0 0 0 0 0 0 
0 0 0 0 0 0 0 0 0 
0 0 0 0 0 0 0 0 0 
0 0 0 0 0 0 0 0 0 
0 0 0 0 0 0 0 0 0 
0 0 0 0 0 0 0 0 0 
0 0 0 0 0 0 0 0 0 
0 0 0 0 0 0 0 0 0 
0 0 0 0 0 0 0 0 0 
0 0 0 0 0 0 0 0 0 
0 0 0 0 0 0 0 0 0 
0 0 0 0 0 0 0 0 0 
0 0 0 0 0 0 0 0 0 
0 0 0 0 0 0 0 0 0 
0 0 0 0 0 0 0 0 0 
0 0 0 0 0 0 0 0 0 
0 0 0 0 0 0 0 0 0 
0 0 0 0 0 0 0 0 0 
0 0 0 0 0 0 0 0 0 
0 0 0 0 0 0 0 0 0 
0 0 0 0 0 0 0 0 0 
0 0 0 0 0 0 0 0 0 
0 0 0 0 0 0 0 0 0 
0 0 0 0 0 0 0 0 0 
0 0 0 0 0 0 0 0 0 
0 0 0 0 0 0 0 0 0 
0 0 0 0 0 0 0 0 0 
0 0 0 0 0 0 0 0 0 
0 0 0 0 0 0 0 0 0 
0 0 0 0 0 0 0 0 0 
0 0 0 0 0 0 0 0 0 
0 0 0 0 0 0 0 0 0 
0 0 0 0 0 0 0 0 0 
0 0 0 0 0 0 0 0 0 
0 0 0 0 0 0 0 0 0 
0 0 0 0 0 0 0 0 0 
0 0 0 0 0 0 0 0 0 
0 0 0 0 0 0 0 0 0 
0 0 0 0 0 0 0 0 0 
0 0 0 0 0 0 0 0 0 
0 0 0 0 0 0 0 0 0 
0 0 0 0 0 0 0 0 0 
0 0 0 0 0 0 0 0 0 
0 0 0 0 0 0 0 0 0 
0 0 0 0 0 0 0 0 0 
0 0 0 0 0 0 0 0 0 
0 0 0 0 0 0 0 0 0 
0 0 0 0 0 0 0 0 0 
0 0 0 0 0 0 0 0 0 
0 0 0 0 0 0 0 0 0 
0 0 0 0 0 0 0 0 0 
0 0 0 0 0 0 0 0 0 
0 0 0 0 0 0 0 0 0 
0 0 0 0 0 0 0 0 0 
0 0 0 0 0 0 0 0 0 
0 0 0 0 0 0 0 0 0 
0 0 0 0 0 0 0 0 0 
0 0 0 0 0 0 0 0 0 
0 0 0 0 0 0 0 0 0 
0 0 0 0 0 0 0 0 0 
0 0 0 0 0 0 0 0 0 
0 0 0 0 0 0 0 0 0 
0 0 0 0 0 0 0 0 0 
0 0 0 0 0 0 0 0 0 
0 0 0 0 0 0 0 0 0 
0 0 0 0 0 0 0 0 0 
0 0 0 0 0 0 0 0 0 
0 0 0 0 0 0 0 0 0 
0 0 0 0 0 0 0 0 0 
0 0 0 0 0 0 0 0 0 
0 0 0 0 0 0 0 0 0 
0 0 0 0 0 0 0 0 0 
0 0 0 0 0 0 0 0 0 
0 0 0 0 0 0 0 0 0 
0 0 0 0 0 0 0 0 0 
0 0 0 0 0 0 0 0 0 
0 0 0 0 0 0 0 0 0 
0 0 0 0 0 0 0 0 0 
0 0 0 0 0 0 0 0 0 
0 0 0 0 0 0 0 0 0 
0 0 0 0 0 0 0 0 0 
0 0 0 0 0 0 0 0 0 
0 0 0 0 0 0 0 0 0 
0 0 0 0 0 0 0 0 0 
0 0 0 0 0 0 0 0 0 
0 0 0 0 0 0 0 0 0 
0 0 0 0 0 0 0 0 0 
0 0 0 0 0 0 0 0 0 
0 0 0 0 0 0 0 0 0 
0 0 0 0 0 0 0 0 0 
0 0 0 0 0 0 0 0 0 
0 0 0 0 0 0 0 0 0 
0 0 0 0 0 0 0 0 0 
0 0 0 0 0 0 0 0 0 
0 0 0 0 0 0 0 0 0 
0 0 0 0 0 0 0 0 0 
0 0 0 0 0 0 0 0 0 
0 0 0 0 0 0 0 0 0 
0 0 0 0 0 0 0 0 0 
0 0 0 0 0 0 0 0 0 
0 0 0 0 0 0 0 0 0 
0 0 0 0 0 0 0 0 0 
0 0 0 0 0 0 0 0 0 
0 0 0 0 0 0 0 0 0 
0 0 0 0 0 0 0 0 0 
0 0 0 0 0 0 0 0 0 
0 0 0 0 0 0 0 0 0 
0 0 0 0 0 0 0 0 0 
0 0 0 0 0 0 0 0 0 
0 0 0 0 0 0 0 0 0 
0 0 0 0 0 0 0 0 0 
0 0 0 0 0 0 0 0 0 
0 0 0 0 0 0 0 0 0 
0 0 0 0 0 0 0 0 0 
0 0 0 0 0 0 0 0 0 
0 0 0 0 0 0 0 0 0 
0 0 0 0 0 0 0 0 0 
0 0 0 0 0 0 0 0 0 
0 0 0 0 0 0 0 0 0 
0 0 0 0 0 0 0 0 0 
0 0 0 0 0 0 0 0 0 
0 0 0 0 0 0 0 0 0 
0 0 0 0 0 0 0 0 0 
0 0 0 0 0 0 0 0 0 
0 0 0 0 0 0 0 0 0 
0 0 0 0 0 0 0 0 0 
0 0 0 0 0 0 0 0 0 
0 0 0 0 0 0 0 0 0 
0 0 0 0 0 0 0 0 0 
0 0 0 0 0 0 0 0 0 
0 0 0 0 0 0 0 0 0 
0 0 0 0 0 0 0 0 0 
0 0 0 0 0 0 0 0 0 
0 0 0 0 0 0 0 0 0 
0 0 0 0 0 0 0 0 0 
0 0 0 0 0 0 0 0 0 
0 0 0 0 0 0 0 0 0 
0 0 0 0 0 0 0 0 0 
0 0 0 0 0 0 0 0 0 
0 0 0 0 0 0 0 0 0 
0 0 0 0 0 0 0 0 0 
0 0 0 0 0 0 0 0 0 
0 0 0 0 0 0 0 0 0 
0 0 0 0 0 0 0 0 0 
0 0 0 0 0 0 0 0 0 
0 0 0 0 0 0 0 0 0 
0 0 0 0 0 0 0 0 0 
0 0 0 0 0 0 0 0 0 
0 0 0 0 0 0 0 0 0 
0 0 0 0 0 0 0 0 0 
0 0 0 0 0 0 0 0 0 
0 0 0 0 0 0 0 0 0 
0 0 0 0 0 0 0 0 0 
0 0 0 0 0 0 0 0 0 
0 0 0 0 0 0 0 0 0 
0 0 0 0 0 0 0 0 0 
0 0 0 0 0 0 0 0 0 
0 0 0 0 0 0 0 0 0 
0 0 0 0 0 0 0 0 0 
0 0 0 0 0 0 0 0 0 
0 0 0 0 0 0 0 0 0 
0 0 0 0 0 0 0 0 0 
0 0 0 0 0 0 0 0 0 
0 0 0 0 0 0 0 0 0 
0 0 0 0 0 0 0 0 0 
0 0 0 0 0 0 0 0 0 
0 0 0 0 0 0 0 0 0 
0 0 0 0 0 0 0 0 0 
0 0 0 0 0 0 0 0 0 
0 0 0 0 0 0 0 0 0 
0 0 0 0 0 0 0 0 0 
0 0 0 0 0 0 0 0 0 
0 0 0 0 0 0 0 0 0 
0 0 0 0 0 0 0 0 0 
0 0 0 0 0 0 0 0 0 
0 0 0 0 0 0 0 0 0 
0 0 0 0 0 0 0 0 0 
0 0 0 0 0 0 0 0 0 
0 0 0 0 0 0 0 0 0 
0 0 0 0 0 0 0 0 0 
0 0 0 0 0 0 0 0 0 
0 0 0 0 0 0 0 0 0 
0 0 0 0 0 0 0 0 0 
0 0 0 0 0 0 0 0 0 
0 0 0 0 0 0 0 0 0 
0 0 0 0 0 0 0 0 0 
0 0 0 0 0 0 0 0 0 
0 0 0 0 0 0 0 0 0 
0 0 0 0 0 0 0 0 0 
0 0 0 0 0 0 0 0 0 
0 0 0 0 0 0 0 0 0 
0 0 0 0 0 0 0 0 0 
0 0 0 0 0 0 0 0 0 
0 0 0 0 0 0 0 0 0 
0 0 0 0 0 0 0 0 0 
0 0 0 0 0 0 0 0 0 
0 0 0 0 0 0 0 0 0 
0 0 0 0 0 0 0 0 0 
0 0 0 0 0 0 0 0 0 
0 0 0 0 0 0 0 0 0 
0 0 0 0 0 0 0 0 0 
0 0 0 0 0 0 0 0 0 
0 0 0 0 0 0 0 0 0 
0 0 0 0 0 0 0 0 0 
0 0 0 0 0 0 0 0 0 
0 0 0 0 0 0 0 0 0 
0 0 0 0 0 0 0 0 0 
0 0 0 0 0 0 0 0 0 
0 0 0 0 0 0 0 0 0 
0 0 0 0 0 0 0 0 0 
0 0 0 0 0 0 0 0 0 
0 0 0 0 0 0 0 0 0 
0 0 0 0 0 0 0 0 0 
0 0 0 0 0 0 0 0 0 
0 0 0 0 0 0 0 0 0 
0 0 0 0 0 0 0 0 0 
0 0 0 0 0 0 0 0 0 
0 0 0 0 0 0 0 0 0 
0 0 0 0 0 0 0 0 0 
0 0 0 0 0 0 0 0 0 
0 0 0 0 0 0 0 0 0 
0 0 0 0 0 0 0 0 0 
0 0 0 0 0 0 0 0 0 
0 0 0 0 0 0 0 0 0 
0 0 0 0 0 0 0 0 0 
0 0 0 0 0 0 0 0 0 
0 0 0 0 0 0 0 0 0 
0 0 0 0 0 0 0 0 0 
0 0 0 0 0 0 0 0 0 
0 0 0 0 0 0 0 0 0 
0 0 0 0 0 0 0 0 0 
0 0 0 0 0 0 0 0 0 
0 0 0 0 0 0 0 0 0 
0 0 0 0 0 0 0 0 0 
0 0 0 0 0 0 0 0 0 
0 0 0 0 0 0 0 0 0 
0 0 0 0 0 0 0 0 0 
0 0 0 0 0 0 0 0 0 
0 0 0 0 0 0 0 0 0 
0 0 0 0 0 0 0 0 0 
0 0 0 0 0 0 0 0 0 
0 0 0 0 0 0 0 0 0 
0 0 0 0 0 0 0 0 0 
0 0 0 0 0 0 0 0 0 
0 0 0 0 0 0 0 0 0 
0 0 0 0 0 0 0 0 0 
0 0 0 0 0 0 0 0 0 
0 0 0 0 0 0 0 0 0 
0 0 0 0 0 0 0 0 0 
0 0 0 0 0 0 0 0 0 
0 0 0 0 0 0 0 0 0 
0 0 0 0 0 0 0 0 0 
0 0 0 0 0 0 0 0 0 
0 0 0 0 0 0 0 0 0 
0 0 0 0 0 0 0 0 0 
0 0 0 0 0 0 0 0 0 
0 0 0 0 0 0 0 0 0 
0 0 0 0 0 0 0 0 0 
0 0 0 0 0 0 0 0 0 
0 0 0 0 0 0 0 0 0 
0 0 0 0 0 0 0 0 0 
0 0 0 0 0 0 0 0 0 
0 0 0 0 0 0 0 0 0 
0 0 0 0 0 0 0 0 0 
0 0 0 0 0 0 0 0 0 
0 0 0 0 0 0 0 0 0 
0 0 0 0 0 0 0 0 0 
0 0 0 0 0 0 0 0 0 
0 0 0 0 0 0 0 0 0 
0 0 0 0 0 0 0 0 0 
0 0 0 0 0 0 0 0 0 
0 0 0 0 0 0 0 0 0 
0 0 0 0 0 0 0 0 0 
0 0 0 0 0 0 0 0 0 
0 0 0 0 0 0 0 0 0 
0 0 0 0 0 0 0 0 0 
0 0 0 0 0 0 0 0 0 
0 0 0 0 0 0 0 0 0 
0 0 0 0 0 0 0 0 0 
0 0 0 0 0 0 0 0 0 
0 0 0 0 0 0 0 0 0 
0 0 0 0 0 0 0 0 0 
0 0 0 0 0 0 0 0 0 
0 0 0 0 0 0 0 0 0 
0 0 0 0 0 0 0 0 0 
0 0 0 0 0 0 0 0 0 
0 0 0 0 0 0 0 0 0 
0 0 0 0 0 0 0 0 0 
0 0 0 0 0 0 0 0 0 
0 0 0 0 0 0 0 0 0 
0 0 0 0 0 0 0 0 0 
0 0 0 0 0 0 0 0 0 
0 0 0 0 0 0 0 0 0 
0 0 0 0 0 0 0 0 0 
0 0 0 0 0 0 0 0 0 
0 0 0 0 0 0 0 0 0 
0 0 0 0 0 0 0 0 0 
0 0 0 0 0 0 0 0 0 
0 0 0 0 0 0 0 0 0 
0 0 0 0 0 0 0 0 0 
0 0 0 0 0 0 0 0 0 
0 0 0 0 0 0 0 0 0 
0 0 0 0 0 0 0 0 0 
0 0 0 0 0 0 0 0 0 
0 0 0 0 0 0 0 0 0 
0 0 0 0 0 0 0 0 0 
0 0 0 0 0 0 0 0 0 
0 0 0 0 0 0 0 0 0 
0 0 0 0 0 0 0 0 0 
0 0 0 0 0 0 0 0 0 
0 0 0 0 0 0 0 0 0 
0 0 0 0 0 0 0 0 0 
0 0 0 0 0 0 0 0 0 
0 0 0 0 0 0 0 0 0 
0 0 0 0 0 0 0 0 0 
0 0 0 0 0 0 0 0 0 
0 0 0 0 0 0 0 0 0 
0 0 0 0 0 0 0 0 0 
0 0 0 0 0 0 0 0 0 
0 0 0 0 0 0 0 0 0 
0 0 0 0 0 0 0 0 0 
0 0 0 0 0 0 0 0 0 
0 0 0 0 0 0 0 0 0 
0 0 0 0 0 0 0 0 0 
0 0 0 0 0 0 0 0 0 
0 0 0 0 0 0 0 0 0 
0 0 0 0 0 0 0 0 0 
0 0 0 0 0 0 0 0 0 
0 0 0 0 0 0 0 0 0 
0 0 0 0 0 0 0 0 0 
0 0 0 0 0 0 0 0 0 
0 0 0 0 0 0 0 0 0 
0 0 0 0 0 0 0 0 0 
0 0 0 0 0 0 0 0 0 
0 0 0 0 0 0 0 0 0 
0 0 0 0 0 0 0 0 0 
0 0 0 0 0 0 0 0 0 
0 0 0 0 0 0 0 0 0 
0 0 0 0 0 0 0 0 0 
0 0 0 0 0 0 0 0 0 
0 0 0 0 0 0 0 0 0 
0 0 0 0 0 0 0 0 0 
0 0 0 0 0 0 0 0 0 
0 0 0 0 0 0 0 0 0 
0 0 0 0 0 0 0 0 0 
0 0 0 0 0 0 0 0 0 
0 0 0 0 0 0 0 0 0 
0 0 0 0 0 0 0 0 0 
0 0 0 0 0 0 0 0 0 
0 0 0 0 0 0 0 0 0 
0 0 0 0 0 0 0 0 0 
0 0 0 0 0 0 0 0 0 
0 0 0 0 0 0 0 0 0 
0 0 0 0 0 0 0 0 0 
0 0 0 0 0 0 0 0 0 
0 0 0 0 0 0 0 0 0 
0 0 0 0 0 0 0 0 0 
0 0 0 0 0 0 0 0 0 
0 0 0 0 0 0 0 0 0 
0 0 0 0 0 0 0 0 0 
0 0 0 0 0 0 0 0 0 
0 0 0 0 0 0 0 0 0 
0 0 0 0 0 0 0 0 0 
0 0 0 0 0 0 0 0 0 
0 0 0 0 0 0 0 0 0 
0 0 0 0 0 0 0 0 0 
0 0 0 0 0 0 0 0 0 
0 0 0 0 0 0 0 0 0 
0 0 0 0 0 0 0 0 0 
0 0 0 0 0 0 0 0 0 
0 0 0 0 0 0 0 0 0 
0 0 0 0 0 0 0 0 0 
0 0 0 0 0 0 0 0 0 
0 0 0 0 0 0 0 0 0 
0 0 0 0 0 0 0 0 0 
0 0 0 0 0 0 0 0 0 
0 0 0 0 0 0 0 0 0 
0 0 0 0 0 0 0 0 0 
0 0 0 0 0 0 0 0 0 
0 0 0 0 0 0 0 0 0 
0 0 0 0 0 0 0 0 0 
0 0 0 0 0 0 0 0 0 
0 0 0 0 0 0 0 0 0 
0 0 0 0 0 0 0 0 0 
0 0 0 0 0 0 0 0 0 
0 0 0 0 0 0 0 0 0 
0 0 0 0 0 0 0 0 0 
0 0 0 0 0 0 0 0 0 
0 0 0 0 0 0 0 0 0 
0 0 0 0 0 0 0 0 0 
0 0 0 0 0 0 0 0 0 
0 0 0 0 0 0 0 0 0 
0 0 0 0 0 0 0 0 0 
0 0 0 0 0 0 0 0 0 
0 0 0 0 0 0 0 0 0 
0 0 0 0 0 0 0 0 0 
0 0 0 0 0 0 0 0 0 
0 0 0 0 0 0 0 0 0 
0 0 0 0 0 0 0 0 0 
0 0 0 0 0 0 0 0 0 
0 0 0 0 0 0 0 0 0 
0 0 0 0 0 0 0 0 0 
0 0 0 0 0 0 0 0 0 
0 0 0 0 0 0 0 0 0 
0 0 0 0 0 0 0 0 0 
0 0 0 0 0 0 0 0 0 
0 0 0 0 0 0 0 0 0 
0 0 0 0 0 0 0 0 0 
0 0 0 0 0 0 0 0 0 
0 0 0 0 0 0 0 0 0 
0 0 0 0 0 0 0 0 0 
0 0 0 0 0 0 0 0 0 
0 0 0 0 0 0 0 0 0 
0 0 0 0 0 0 0 0 0 
0 0 0 0 0 0 0 0 0 
0 0 0 0 0 0 0 0 0 
0 0 0 0 0 0 0 0 0 
0 0 0 0 0 0 0 0 0 
0 0 0 0 0 0 0 0 0 
0 0 0 0 0 0 0 0 0 
0 0 0 0 0 0 0 0 0 
0 0 0 0 0 0 0 0 0 
0 0 0 0 0 0 0 0 0 
0 0 0 0 0 0 0 0 0 
0 0 0 0 0 0 0 0 0 
0 0 0 0 0 0 0 0 0 
0 0 0 0 0 0 0 0 0 
0 0 0 0 0 0 0 0 0 
0 0 0 0 0 0 0 0 0 
0 0 0 0 0 0 0 0 0 
0 0 0 0 0 0 0 0 0 
0 0 0 0 0 0 0 0 0 
0 0 0 0 0 0 0 0 0 
0 0 0 0 0 0 0 0 0 
0 0 0 0 0 0 0 0 0 
0 0 0 0 0 0 0 0 0 
0 0 0 0 0 0 0 0 0 
0 0 0 0 0 0 0 0 0 
0 0 0 0 0 0 0 0 0 
0 0 0 0 0 0 0 0 0 
0 0 0 0 0 0 0 0 0 
0 0 0 0 0 0 0 0 0 
0 0 0 0 0 0 0 0 0 
0 0 0 0 0 0 0 0 0 
0 0 0 0 0 0 0 0 0 
0 0 0 0 0 0 0 0 0 
0 0 0 0 0 0 0 0 0 
0 0 0 0 0 0 0 0 0 
0 0 0 0 0 0 0 0 0 
0 0 0 0 0 0 0 0 0 
0 0 0 0 0 0 0 0 0 
0 0 0 0 0 0 0 0 0 
0 0 0 0 0 0 0 0 0 
0 0 0 0 0 0 0 0 0 
0 0 0 0 0 0 0 0 0 
0 0 0 0 0 0 0 0 0 
0 0 0 0 0 0 0 0 0 
0 0 0 0 0 0 0 0 0 
0 0 0 0 0 0 0 0 0 
0 0 0 0 0 0 0 0 0 
0 0 0 0 0 0 0 0 0 
0 0 0 0 0 0 0 0 0 
0 0 0 0 0 0 0 0 0 
0 0 0 0 0 0 0 0 0 
0 0 0 0 0 0 0 0 0 
0 0 0 0 0 0 0 0 0 
0 0 0 0 0 0 0 0 0 
0 0 0 0 0 0 0 0 0 
0 0 0 0 0 0 0 0 0 
0 0 0 0 0 0 0 0 0 
0 0 0 0 0 0 0 0 0 
0 0 0 0 0 0 0 0 0 
0 0 0 0 0 0 0 0 0 
0 0 0 0 0 0 0 0 0 
0 0 0 0 0 0 0 0 0 
0 0 0 0 0 0 0 0 0 
0 0 0 0 0 0 0 0 0 
0 0 0 0 0 0 0 0 0 

v 3 1452 double
0.394822 -0.172405 0.000387606 0 0 1.23218e-11 -0.092262 -0.250649 5.18128e-05 
-0.277041 -0.564434 -0.0199824 0 0 0.149611 -0.745142 0.0894958 -0.906143 
1.1258 0.000186252 -0.879981 -0.247426 -0.309737 -4.06928 0 0 -5.22037 
-2.31232 -0.287834 -3.56394 -0.0678135 0.00755289 -4.65508 0 0 -5.81412 
0.460289 -0.0512657 -5.16303 -0.767998 -0.916943 6.2758e-06 0.00681884 -0.0604403 -4.79338 
-0.0516352 0.0777997 -5.59518 0.0689056 0.0605287 -4.96786 1.45142 1.11541 -3.34543 
0.630156 0.158648 -0.000568872 0 0 1.60772e-11 0 0 1.72137e-11 
0.158481 0.163055 8.41024e-12 -0.114339 0.0697661 -3.08835e-07 0.0801317 -0.549415 9.60291e-12 
-0.0851302 -0.0288496 0.0622557 -0.256179 0.240375 0.10317 1.17553 -1.76637 -2.5546 
-0.910083 -0.789626 0.070049 0 0 -4.70779 0 0 -4.44072 
0.0502472 0.0347416 -5.07547 -0.0347383 -0.0114695 -5.00387 -0.0746196 -0.279581 -2.93554 
-2.03141 0.370267 -2.18681 -1.62259 0.0788268 0.0588603 0.380602 0.299343 -6.32023e-06 
0 0 1.11844e-11 3.46512 0.261505 1.05897 0.568932 0.40419 -0.915929 
-0.804619 -0.76907 -0.111746 -0.885412 0.226877 -1.81763 1.59546 -1.85185 -2.17975 
-0.8382 0.743018 0.969729 -1.48894 2.141 -3.49224 0.0243557 -1.51036 -4.34077 
0.109451 0.159385 -4.45315 0.0447929 0.667261 -4.05793 -0.790763 -2.75785 -9.38198e-06 