# vtk DataFile Version 4.0
Generated by LIGGGHTS
ASCII
DATASET POLYDATA
POINTS 1245 float
0.00844804 0.00680527 0.0116574 0.00292458 0.00459217 0.0109657 0.0118501 0.00783091 0.01226 
0.00955584 0.00283076 0.0124056 0.00347893 0.00830243 0.0147597 0.000958321 0.00782428 0.0145744 
0.00747265 0.00742884 0.0153977 0.0113896 0.00435135 0.0154539 0.0104662 0.00155156 0.0157441 
0.00517429 0.00482478 0.0165081 0.0131888 0.00166028 0.0112841 0.015665 0.00583687 0.0112141 
0.0209488 0.0038242 0.0115721 0.017417 0.00348665 0.0115441 0.0184252 0.00649542 0.0138011 
0.0228547 0.00133443 0.0141118 0.0155828 0.000924981 0.0139852 0.0129759 0.00607459 0.01398 
0.0203812 0.00179143 0.0142566 0.0182506 0.00769272 0.0156262 0.0217211 0.00664946 0.0163957 
0.00796029 0.0120759 0.011284 0.00883921 0.0152754 0.0121344 0.00219654 0.0162748 0.0108329 
0.00777292 0.00916972 0.0108022 0.00461686 0.0110043 0.0134049 0.010708 0.0143824 0.0146544 
0.00811447 0.0107104 0.0133845 0.0071467 0.0149273 0.0155089 0.0231063 0.0107814 0.0109705 
0.0148205 0.0137143 0.0114555 0.0124852 0.0120514 0.0131101 0.0197686 0.0116484 0.0145192 
0.0156734 0.0100012 0.0157337 0.016045 0.0165798 0.0118945 0.0229484 0.0158817 0.0158102 
0.0186098 0.0106623 0.016143 0.0218323 0.0122188 0.0164101 0.00706174 0.0231737 0.0115684 
0.00553615 0.0187438 0.0108719 0.00315249 0.0196971 0.0112909 0.00942732 0.0231998 0.0111449 
0.00308342 0.0221653 0.0121608 0.00952991 0.0220419 0.0132144 0.0119125 0.0173155 0.0133481 
0.00589081 0.0196926 0.0136978 0.00181676 0.0198225 0.0156254 0.0148928 0.0230402 0.0111104 
0.022581 0.0227675 0.0109331 0.0176988 0.0244545 0.0112505 0.0202601 0.0201687 0.0122387 
0.0129529 0.0201877 0.0140806 0.0197239 0.0206601 0.0146501 0.0149975 0.020985 0.0155737 
0.0195615 0.0249491 0.0156261 0.0215956 0.0170964 0.0160587 0.0149205 0.0237813 0.0163161 
0.0181586 0.0227732 0.0162823 0.0104062 0.0268639 0.0116574 0.0114233 0.0308631 0.0106267 
0.0108572 0.0296046 0.0108847 0.00660921 0.0280517 0.0113164 0.0092696 0.0316573 0.0116111 
0.00217946 0.0321429 0.0119808 0.00382032 0.0253825 0.0140712 0.000900116 0.0257758 0.0137739 
0.00117456 0.0307995 0.0154481 0.00504555 0.0265219 0.0161051 0.0213477 0.0287194 0.0113246 
0.0173992 0.0289347 0.0110743 0.0143331 0.0287116 0.0111299 0.0129352 0.0310327 0.011099 
0.0222476 0.0308307 0.0130375 0.018287 0.0310378 0.0131331 0.0216686 0.0251729 0.0139001 
0.0145974 0.0319076 0.0131114 0.0210759 0.032183 0.0143888 0.0139984 0.0287792 0.0152358 
0.0162087 0.0306183 0.0160878 0.00435934 0.0334426 0.0119081 0.00673508 0.0392073 0.0108763 
0.00343213 0.0370204 0.0109483 0.00797306 0.0351687 0.0107619 0.0106361 0.0386003 0.0124597 
0.00143444 0.0338727 0.0130642 0.00984181 0.0358323 0.0144186 0.0111585 0.0389975 0.0154456 
0.00597117 0.0374861 0.0163598 0.00835724 0.0416042 0.0162479 0.0178733 0.0377034 0.0109944 
0.0204041 0.0414427 0.0112839 0.0225284 0.0343253 0.0110166 0.0147483 0.0362724 0.011993 
0.0168041 0.0399863 0.0109945 0.012822 0.0410915 0.0127682 0.020702 0.0378002 0.0127361 
0.0207403 0.034506 0.0151777 0.0149883 0.0367481 0.0164401 0.0216618 0.0367501 0.0151627 
0.0184583 0.0372178 0.0156542 0.0065439 0.0476948 0.0109308 0.00389644 0.0484977 0.0115313 
0.00856018 0.0467983 0.011124 0.00506703 0.0450686 0.0123481 0.00814842 0.0430269 0.0142498 
0.0107851 0.044552 0.0144682 0.00437483 0.0491548 0.0150497 0.00171277 0.0420274 0.01583 
0.0178009 0.0419024 0.0115001 0.0160413 0.0442543 0.0110071 0.0139264 0.0431249 0.010766 
0.0144577 0.0461063 0.0113973 0.0225443 0.0455754 0.0108729 0.0204502 0.0482233 0.0136147 
0.0156064 0.0445511 0.0140193 0.0144003 0.0465288 0.0148676 0.0230003 0.0492881 0.0156587 
0.0171974 0.0499207 0.0155572 0.0176845 0.0447982 0.0161021 0.00217018 0.0566907 0.0105965 
0.00418213 0.0535135 0.0108759 0.00845178 0.0534956 0.0109949 0.00522034 0.0568425 0.0110801 
0.00925865 0.0541155 0.0134683 0.00121332 0.0507394 0.0142152 0.00946546 0.0563972 0.0160928 
0.0216781 0.0583111 0.0108767 0.0130256 0.0550133 0.0109922 0.0159258 0.0525458 0.0113971 
0.0199121 0.057591 0.0110372 0.0184647 0.0542739 0.0142306 0.0224189 0.0560622 0.013197 
0.0142693 0.0583051 0.0130964 0.0180633 0.0565508 0.0146962 0.0121075 0.0568446 0.0162359 
0.00470345 0.0590695 0.010711 0.0116891 0.0583731 0.0110793 0.00924167 0.0646967 0.0111281 
0.00658513 0.0625105 0.0134179 0.00633735 0.0656995 0.0137461 0.00329295 0.06378 0.0140391 
0.010254 0.0623298 0.0144426 0.00353967 0.0599039 0.0153173 0.00530604 0.0638091 0.0149671 
0.0217693 0.0636077 0.0112838 0.022676 0.0600376 0.0112187 0.0125131 0.0622152 0.0110512 
0.019644 0.060043 0.0107856 0.0140085 0.0609444 0.0121941 0.0143938 0.0645765 0.0123808 
0.0179495 0.0657639 0.0129505 0.0207578 0.0657462 0.0141892 0.0146651 0.0605613 0.013966 
0.0166142 0.0612334 0.0163467 0.0147768 0.0588101 0.0160224 0.0189466 0.0664426 0.0164188 
0.00912092 0.0678989 0.0109943 0.00254164 0.0667222 0.011482 0.00461083 0.0693915 0.0110104 
0.00708493 0.0682033 0.0112242 0.00473739 0.0675842 0.0129671 0.00938029 0.0704313 0.0144087 
0.00550481 0.0731226 0.0155757 0.0169642 0.0685253 0.01113 0.0158866 0.0706934 0.0112922 
0.0138272 0.0699814 0.010678 0.0122554 0.0686328 0.0113208 0.0198245 0.0720953 0.0116815 
0.0154734 0.0675839 0.0126987 0.0191603 0.0693545 0.0146757 0.0217023 0.0707441 0.0152661 
0.0193682 0.0715429 0.015382 0.0157357 0.0715417 0.0157189 0.00276385 0.00318675 0.0182858 
0.0057805 0.00250871 0.0169149 0.0103416 0.00830573 0.0184737 0.0049393 0.0074308 0.0181711 
0.00505791 0.00293125 0.0191482 0.000815583 0.00367952 0.0204683 0.00693432 0.00361614 0.019251 
0.00185917 0.00459625 0.0212744 0.00231079 0.00275306 0.0215124 0.00482666 0.00504311 0.0237283 
0.00255663 0.00238265 0.0232547 0.0111202 0.00485147 0.0243691 0.0060461 0.00244157 0.0241192 
0.00285892 0.00564683 0.0240029 0.00279871 0.00823219 0.024827 0.0158177 0.000924417 0.0189941 
0.0158421 0.00641332 0.0212383 0.0140214 0.00335173 0.0212879 0.0132523 0.00790315 0.0204317 
0.0173169 0.00268158 0.0207946 0.0207014 0.00808832 0.0187963 0.0205763 0.00352915 0.0230311 
0.0127812 0.00757744 0.0233705 0.0213159 0.00800566 0.0237649 0.0194206 0.00554703 0.0214447 
0.015546 0.00631159 0.0235104 0.0129966 0.00281085 0.0237865 0.0213886 0.00115386 0.0239266 
0.0175929 0.00269623 0.0240747 0.0181195 0.005834 0.0239726 0.0148803 0.00445746 0.0241044 
0.00899915 0.0125506 0.0171981 0.00492671 0.00987983 0.0171267 0.000804757 0.0146683 0.0187906 
0.00990457 0.0161911 0.0170862 0.00700804 0.0141717 0.0177467 0.00978683 0.01055 0.0207041 
0.00759798 0.0165451 0.0174931 0.00361575 0.0161255 0.0192647 0.00170726 0.0123045 0.0189358 
0.00794544 0.00913169 0.0185822 0.00443907 0.0139066 0.0177128 0.00606593 0.0147489 0.0197857 
0.0108109 0.0118614 0.0209645 0.00375576 0.0143712 0.020924 0.00354638 0.0106693 0.0236401 
0.00641469 0.0115688 0.0239882 0.00916396 0.0137305 0.0247994 0.0159181 0.0103445 0.0178966 
0.01805 0.0132539 0.0164482 0.0208167 0.0102748 0.0176671 0.0147761 0.0165822 0.0200025 
0.0226047 0.00951025 0.0190157 0.016524 0.0141488 0.0193128 0.0144555 0.0136148 0.0194961 
0.0183419 0.0094429 0.0187885 0.0216032 0.0146521 0.0194197 0.0187378 0.0122282 0.019973 
0.0155195 0.0150199 0.021996 0.0157222 0.0115547 0.0216852 0.0182347 0.0159475 0.0211611 
0.0222781 0.015276 0.0221751 0.0126086 0.0151169 0.0228268 0.015339 0.0140158 0.0241905 
0.00220238 0.0231027 0.0196294 0.00611547 0.0208788 0.0197857 0.00959355 0.0215053 0.0180309 
0.0028263 0.0173276 0.0171248 0.00128124 0.017966 0.0189857 0.00663197 0.0234065 0.0189864 
0.011794 0.0244682 0.0179387 0.00410589 0.0240813 0.0171512 0.00752008 0.0188469 0.0175621 
0.00938785 0.0172223 0.0197472 0.00694321 0.0171278 0.0200021 0.00536912 0.0210478 0.0217633 
0.0116235 0.0185568 0.0204651 0.0044976 0.0248178 0.0228664 0.00973967 0.0186021 0.023055 
0.00945752 0.0226376 0.0238626 0.0162626 0.0194677 0.0191754 0.0209217 0.0223702 0.0168836 
0.0216371 0.0199016 0.0181333 0.0149728 0.0219241 0.018557 0.0160837 0.0220941 0.022556 
0.0186247 0.0247296 0.0179841 0.0184081 0.0201288 0.0199755 0.023045 0.0188645 0.0203061 
0.0144196 0.0189857 0.02157 0.021061 0.020695 0.0215732 0.0214458 0.0172882 0.0225051 
0.0192026 0.0170804 0.0236701 0.0134013 0.0236508 0.0233614 0.0115449 0.0284265 0.0190254 
0.0100866 0.0303644 0.0200824 0.00805432 0.0259666 0.0190159 0.0109489 0.0259544 0.0198335 
0.0115766 0.0317517 0.0203029 0.00361375 0.0314304 0.0173858 0.00223252 0.0265254 0.0191462 
0.00726282 0.0332728 0.0223072 0.00231833 0.0270073 0.0218335 0.00754359 0.0297146 0.0237664 
0.0071092 0.0274732 0.0239792 0.00958452 0.0317726 0.0243581 0.00970091 0.027736 0.0242204 
0.00558681 0.0284529 0.0245758 0.00102733 0.0324567 0.0248037 0.0116649 0.0285325 0.0247845 
0.0132801 0.0268386 0.0189982 0.0205651 0.0277888 0.0166661 0.0147065 0.0267659 0.0177908 
0.0222771 0.0255099 0.0180756 0.0218672 0.0303104 0.0176327 0.0200647 0.0323471 0.020285 
0.0207101 0.028361 0.0215328 0.0149387 0.0267712 0.0197434 0.0223332 0.0324519 0.0217528 
0.0134997 0.0324221 0.0217625 0.0136139 0.0296837 0.0226674 0.0181589 0.0323247 0.0215302 
0.0221385 0.0307882 0.0231309 0.0220513 0.0270003 0.023457 0.0180483 0.0274266 0.0237584 
0.0133123 0.0272178 0.023857 0.0174609 0.0304601 0.0237628 0.0154884 0.0294609 0.0241078 
0.0150325 0.0317994 0.0241049 0.00596589 0.0347251 0.0166339 0.0115776 0.0339533 0.0188335 
0.00500435 0.0346029 0.0207113 0.00207535 0.0357093 0.0168774 0.0021711 0.040184 0.0195984 
0.0116321 0.039126 0.0205292 0.00746763 0.040133 0.0186727 0.00322016 0.0375219 0.0202131 
0.00471934 0.0398772 0.0199805 0.0107833 0.0333843 0.0225391 0.0104062 0.0400975 0.0223358 
0.00412421 0.0343314 0.0226255 0.00898979 0.0357844 0.0210912 0.00559205 0.0334106 0.0237003 
0.0116922 0.0369697 0.0197865 0.0045033 0.0363902 0.0246259 0.0173664 0.0387622 0.0173318 
0.0227683 0.0335397 0.0189249 0.0220775 0.0388887 0.018642 0.0226726 0.0412773 0.0207001 
[...]
POINT_DATA 1245
FIELD FieldData 7
id 1 1245 int
35 125 367 403 461 47 442 449 45 
707 114 290 197 5 412 568 599 332 
140 56 509 15 68 83 235 510 408 
654 781 232 414 36 400 753 105 475 
710 816 98 355 394 110 310 794 227 
4 500 91 307 280 443 155 344 761 
370 354 112 190 188 225 100 111 151 
170 479 261 371 93 74 58 22 34 
301 285 422 96 66 780 31 349 3 
196 106 450 20 226 283 350 273 7 
55 99 293 265 276 338 698 296 127 
95 78 343 32 24 407 63 206 684 
46 21 253 139 189 491 604 795 242 
57 565 109 128 163 279 228 53 873 
88 121 94 135 564 244 384 487 493 
40 284 233 318 311 574 608 495 17 
86 240 322 325 382 210 138 323 85 
709 82 216 171 224 136 51 29 287 
203 69 260 148 358 314 335 757 184 
457 571 549 399 373 65 304 512 271 
434 446 1147 272 933 1176 405 298 572 
675 894 553 660 934 643 425 792 1154 
521 779 531 185 246 464 305 336 827 
281 582 635 87 353 473 243 951 270 
390 41 1004 315 657 340 754 824 846 
177 569 910 205 180 19 681 397 1069 
75 327 448 583 740 429 790 802 406 
638 54 42 209 179 366 1092 1109 37 
603 689 749 456 828 884 84 380 436 
77 249 711 388 853 721 556 823 254 
629 103 991 1034 468 876 767 833 612 
229 591 540 682 691 777 263 186 739 
940 176 411 294 1066 44 357 856 965 
92 201 199 518 626 701 738 519 838 
919 245 48 330 766 537 472 1129 104 
1131 554 181 899 946 80 1022 13 897 
1048 952 211 268 538 133 267 494 533 
417 6 1029 737 1038 437 1125 885 115 
630 1159 238 627 594 702 328 499 161 
958 391 143 615 150 1212 645 389 559 
668 672 822 835 378 636 43 306 308 
1093 778 359 1149 122 149 659 511 560 
679 706 430 841 848 680 971 976 852 
595 797 418 809 38 1101 386 252 1201 
257 717 943 661 694 579 490 508 79 
387 401 773 1010 142 514 602 427 609 
501 269 820 915 375 352 683 266 470 
585 152 174 1039 1193 1207 586 621 611 
814 195 979 156 632 462 218 363 424 
1145 728 292 28 525 839 64 207 158 
14 640 134 1165 215 590 704 719 162 
404 857 936 980 423 1026 1032 505 997 
1050 607 1088 796 482 620 1156 529 10 
118 911 59 606 840 208 192 485 26 
173 374 282 1100 507 345 420 52 637 
164 187 73 992 1014 379 545 12 782 
743 1070 649 524 862 731 1112 220 617 
62 928 1209 377 61 517 720 230 89 
60 277 798 237 146 764 221 787 278 
101 113 1164 1133 566 392 663 395 27 
137 341 994 129 837 957 213 818 1155 
444 1205 669 1210 295 601 478 723 900 
447 945 372 2 107 1062 676 25 1134 
548 922 1226 674 605 726 829 854 859 
633 1015 489 744 175 398 438 458 880 
342 1197 108 102 204 771 214 33 23 
1028 116 650 1053 546 1102 250 145 793 
696 528 800 1120 1233 319 686 320 634 
324 690 901 11 1 1042 421 346 124 
361 132 783 356 715 236 360 459 805 
1018 480 1035 291 1099 1103 845 647 1190 
1229 664 695 713 716 339 241 141 451 
381 914 927 198 30 598 117 165 577 
76 1141 202 329 1175 1203 49 544 580 
255 160 234 72 302 1052 1083 1115 1030 
120 988 644 561 807 212 861 347 969 
1007 685 1108 881 1121 1127 588 613 222 
725 891 474 496 259 410 167 746 658 
452 765 1220 584 71 784 872 562 918 
481 699 826 247 536 396 275 119 303 
157 1104 313 168 1188 166 759 834 869 
892 97 662 930 251 39 1027 666 1087 
231 334 1167 1171 614 656 972 67 748 
916 882 539 16 1045 8 1051 1054 1065 
687 1073 402 439 18 1206 393 708 178 
642 874 153 541 903 904 312 954 467 
1001 523 769 131 1148 50 376 576 1228 
1235 692 9 843 920 924 497 1059 492 
975 610 727 763 670 722 974 321 1098 
1122 1172 1219 477 557 256 219 1013 1126 
1136 902 1182 1185 535 653 484 123 913 
949 274 977 750 454 1057 875 1140 1199 
831 718 542 733 575 929 169 867 299 
1003 671 435 1151 756 1169 1186 1214 1216 
1227 573 147 735 855 81 182 964 154 
624 1005 1016 502 1064 1068 515 348 596 
712 1225 578 758 786 619 217 432 950 
956 200 1033 732 488 1076 983 1232 1096 
144 678 419 760 191 870 193 955 993 
1037 889 1089 751 1174 262 286 729 844 
248 465 431 878 90 887 973 333 469 
369 362 1091 616 409 830 532 223 309 
851 316 1077 1107 1142 516 1192 1218 865 
817 1230 705 810 868 126 476 364 326 
963 995 998 331 288 513 194 520 365 
688 504 736 804 812 752 907 921 527 
239 172 1002 558 337 1118 1138 415 651 
667 677 813 819 896 289 926 258 791 
982 460 1025 1074 1110 506 646 547 317 
426 618 440 70 776 1023 693 1079 1124 
471 543 1187 597 433 953 770 961 1012 
1031 383 1041 587 563 351 445 483 1146 
1160 1196 941 183 655 368 714 724 803 
297 703 463 622 453 300 1019 264 567 
1006 1198 639 1222 466 745 416 775 836 
428 898 486 641 130 551 441 1162 550 
159 788 847 883 917 1000 1017 1020 1021 
785 1071 413 385 628 806 825 879 886 
1084 1123 526 552 631 768 864 999 1040 
1047 1063 1075 1113 1117 1130 1224 742 774 
932 1056 1179 1204 1231 1236 503 581 801 
970 1094 1105 1163 755 762 789 925 938 
978 987 1024 1152 1153 1161 1184 1217 534 
648 652 893 959 996 1044 1049 1061 1086 
1137 1181 1194 1200 498 592 623 665 842 
905 906 939 984 1036 1202 1215 455 849 
866 908 960 962 1043 1067 1144 1166 1173 
530 673 734 947 1055 1072 1078 1095 1211 
1234 625 730 888 966 968 1195 1221 772 
808 931 944 986 1011 1081 1116 1170 555 
700 871 981 989 1009 1178 1213 1223 815 
821 832 850 912 937 1058 1060 1157 1168 
570 799 860 942 990 1090 1135 1143 522 
741 877 923 935 985 1008 1085 1114 1119 
1128 1150 1180 1189 589 600 858 948 967 
1080 1082 1097 1132 1139 1183 1208 697 747 
811 863 1106 1111 593 890 895 909 1046 
1158 1177 1191 1237 1238 1239 1240 1241 1242 
1243 1244 1245 
type 1 1245 int
1 1 1 1 1 1 1 1 1 
1 1 1 1 1 1 1 1 1 
1 1 1 1 1 1 1 1 1 
1 1 1 1 1 1 1 1 1 
1 1 1 1 1 1 1 1 1 
1 1 1 1 1 1 1 1 1 
1 1 1 1 1 1 1 1 1 
1 1 1 1 1 1 1 1 1 
1 1 1 1 1 1 1 1 1 
1 1 1 1 1 1 1 1 1 
1 1 1 1 1 1 1 1 1 
1 1 1 1 1 1 1 1 1 
1 1 1 1 1 1 1 1 1 
1 1 1 1 1 1 1 1 1 
1 1 1 1 1 1 1 1 1 
1 1 1 1 1 1 1 1 1 
1 1 1 1 1 1 1 1 1 
1 1 1 1 1 1 1 1 1 
1 1 1 1 1 1 1 1 1 
1 1 1 1 1 1 1 1 1 
1 1 1 1 1 1 1 1 1 
1 1 1 1 1 1 1 1 1 
1 1 1 1 1 1 1 1 1 
1 1 1 1 1 1 1 1 1 
1 1 1 1 1 1 1 1 1 
1 1 1 1 1 1 1 1 1 
1 1 1 1 1 1 1 1 1 
1 1 1 1 1 1 1 1 1 
1 1 1 1 1 1 1 1 1 
1 1 1 1 1 1 1 1 1 
1 1 1 1 1 1 1 1 1 
1 1 1 1 1 1 1 1 1 
1 1 1 1 1 1 1 1 1 
1 1 1 1 1 1 1 1 1 
1 1 1 1 1 1 1 1 1 
1 1 1 1 1 1 1 1 1 
1 1 1 1 1 1 1 1 1 
1 1 1 1 1 1 1 1 1 
1 1 1 1 1 1 1 1 1 
1 1 1 1 1 1 1 1 1 
1 1 1 1 1 1 1 1 1 
1 1 1 1 1 1 1 1 1 
1 1 1 1 1 1 1 1 1 
1 1 1 1 1 1 1 1 1 
1 1 1 1 1 1 1 1 1 
1 1 1 1 1 1 1 1 1 
1 1 1 1 1 1 1 1 1 
1 1 1 1 1 1 1 1 1 
1 1 1 1 1 1 1 1 1 
1 1 1 1 1 1 1 1 1 
1 1 1 1 1 1 1 1 1 
1 1 1 1 1 1 1 1 1 
1 1 1 1 1 1 1 1 1 
1 1 1 1 1 1 1 1 1 
1 1 1 1 1 1 1 1 1 
1 1 1 1 1 1 1 1 1 
1 1 1 1 1 1 1 1 1 
1 1 1 1 1 1 1 1 1 
1 1 1 1 1 1 1 1 1 
1 1 1 1 1 1 1 1 1 
1 1 1 1 1 1 1 1 1 
1 1 1 1 1 1 1 1 1 
1 1 1 1 1 1 1 1 1 
1 1 1 1 1 1 1 1 1 
1 1 1 1 1 1 1 1 1 
1 1 1 1 1 1 1 1 1 
1 1 1 1 1 1 1 1 1 
1 1 1 1 1 1 1 1 1 
1 1 1 1 1 1 1 1 1 
1 1 1 1 1 1 1 1 1 
1 1 1 1 1 1 1 1 1 
1 1 1 1 1 1 1 1 1 
1 1 1 1 1 1 1 1 1 
1 1 1 1 1 1 1 1 1 
1 1 1 1 1 1 1 1 1 
1 1 1 1 1 1 1 1 1 
1 1 1 1 1 1 1 1 1 
1 1 1 1 1 1 1 1 1 
1 1 1 1 1 1 1 1 1 
1 1 1 1 1 1 1 1 1 
1 1 1 1 1 1 1 1 1 
1 1 1 1 1 1 1 1 1 
1 1 1 1 1 1 1 1 1 
1 1 1 1 1 1 1 1 1 
1 1 1 1 1 1 1 1 1 
1 1 1 1 1 1 1 1 1 
1 1 1 1 1 1 1 1 1 
1 1 1 1 1 1 1 1 1 
1 1 1 1 1 1 1 1 1 
1 1 1 1 1 1 1 1 1 
1 1 1 1 1 1 1 1 1 
1 1 1 1 1 1 1 1 1 
1 1 1 1 1 1 1 1 1 
1 1 1 1 1 1 1 1 1 
1 1 1 1 1 1 1 1 1 
1 1 1 1 1 1 1 1 1 
1 1 1 1 1 1 1 1 1 
1 1 1 1 1 1 1 1 1 
1 1 1 1 1 1 1 1 1 
1 1 1 1 1 1 1 1 1 
1 1 1 1 1 1 1 1 1 
1 1 1 1 1 1 1 1 1 
1 1 1 1 1 1 1 1 1 
1 1 1 1 1 1 1 1 1 
1 1 1 1 1 1 1 1 1 
1 1 1 1 1 1 1 1 1 
1 1 1 1 1 1 1 1 1 
1 1 1 1 1 1 1 1 1 
1 1 1 1 1 1 1 1 1 
1 1 1 1 1 1 1 1 1 
1 1 1 1 1 1 1 1 1 
1 1 1 1 1 1 1 1 1 
1 1 1 1 1 1 1 1 1 
1 1 1 1 1 1 1 1 1 
1 1 1 1 1 1 1 1 1 
1 1 1 1 1 1 1 1 1 
1 1 1 1 1 1 1 1 1 
1 1 1 1 1 1 1 1 1 
1 1 1 1 1 1 1 1 1 
1 1 1 1 1 1 1 1 1 
1 1 1 1 1 1 1 1 1 
1 1 1 1 1 1 1 1 1 
1 1 1 1 1 1 1 1 1 
1 1 1 1 1 1 1 1 1 
1 1 1 1 1 1 1 1 1 
1 1 1 1 1 1 1 1 1 
1 1 1 1 1 1 1 1 1 
1 1 1 1 1 1 1 1 1 
1 1 1 1 1 1 1 1 1 
1 1 1 1 1 1 1 1 1 
1 1 1 1 1 1 1 1 1 
1 1 1 1 1 1 1 1 1 
1 1 1 1 1 1 1 1 1 
1 1 1 1 1 1 1 1 1 
1 1 1 1 1 1 1 1 1 
1 1 1 1 1 1 1 1 1 
1 1 1 1 1 1 1 1 1 
1 1 1 1 1 1 1 1 1 
1 1 1 
i 3 1245 int
0 0 0 0 0 0 0 0 0 
0 0 0 0 0 0 0 0 0 
0 0 0 0 0 0 0 0 0 
0 0 0 0 0 0 0 0 0 
0 0 0 0 0 0 0 0 0 
0 0 0 0 0 0 0 0 0 
0 0 0 0 0 0 0 0 0 
0 0 0 0 0 0 0 0 0 
0 0 0 0 0 0 0 0 0 
0 0 0 0 0 0 0 0 0 
0 0 0 0 0 0 0 0 0 
0 0 0 0 0 0 0 0 0 
0 0 0 0 0 0 0 0 0 
0 0 0 0 0 0 0 0 0 
0 0 0 0 0 0 0 0 0 
0 0 0 0 0 0 0 0 0 
0 0 0 0 0 0 0 0 0 
0 0 0 0 0 0 0 0 0 
0 0 0 0 0 0 0 0 0 
0 0 0 0 0 0 0 0 0 
0 0 0 0 0 0 0 0 0 
0 0 0 0 0 0 0 0 0 
0 0 0 0 0 0 0 0 0 
0 0 0 0 0 0 0 0 0 
0 0 0 0 0 0 0 0 0 
0 0 0 0 0 0 0 0 0 
0 0 0 0 0 0 0 0 0 
0 0 0 0 0 0 0 0 0 
0 0 0 0 0 0 0 0 0 
0 0 0 0 0 0 0 0 0 
0 0 0 0 0 0 0 0 0 
0 0 0 0 0 0 0 0 0 
0 0 0 0 0 0 0 0 0 
0 0 0 0 0 0 0 0 0 
0 0 0 0 0 0 0 0 0 
0 0 0 0 0 0 0 0 0 
0 0 0 0 0 0 0 0 0 
0 0 0 0 0 0 0 0 0 
0 0 0 0 0 0 0 0 0 
0 0 0 0 0 0 0 0 0 
0 0 0 0 0 0 0 0 0 
0 0 0 0 0 0 0 0 0 
0 0 0 0 0 0 0 0 0 
0 0 0 0 0 0 0 0 0 
0 0 0 0 0 0 0 0 0 
0 0 0 0 0 0 0 0 0 
0 0 0 0 0 0 0 0 0 
0 0 0 0 0 0 0 0 0 
0 0 0 0 0 0 0 0 0 
0 0 0 0 0 0 0 0 0 
0 0 0 0 0 0 0 0 0 
0 0 0 0 0 0 0 0 0 
0 0 0 0 0 0 0 0 0 
0 0 0 0 0 0 0 0 0 
0 0 0 0 0 0 0 0 0 
0 0 0 0 0 0 0 0 0 
0 0 0 0 0 0 0 0 0 
0 0 0 0 0 0 0 0 0 
0 0 0 0 0 0 0 0 0 
0 0 0 0 0 0 0 0 0 
0 0 0 0 0 0 0 0 0 
0 0 0 0 0 0 0 0 0 
0 0 0 0 0 0 0 0 0 
0 0 0 0 0 0 0 0 0 
0 0 0 0 0 0 0 0 0 
0 0 0 0 0 0 0 0 0 
0 0 0 0 0 0 0 0 0 
0 0 0 0 0 0 0 0 0 
0 0 0 0 0 0 0 0 0 
0 0 0 0 0 0 0 0 0 
0 0 0 0 0 0 0 0 0 
0 0 0 0 0 0 0 0 0 
0 0 0 0 0 0 0 0 0 
0 0 0 0 0 0 0 0 0 
0 0 0 0 0 0 0 0 0 
0 0 0 0 0 0 0 0 0 
0 0 0 0 0 0 0 0 0 
0 0 0 0 0 0 0 0 0 
0 0 0 0 0 0 0 0 0 
0 0 0 0 0 0 0 0 0 
0 0 0 0 0 0 0 0 0 
0 0 0 0 0 0 0 0 0 
0 0 0 0 0 0 0 0 0 
0 0 0 0 0 0 0 0 0 
0 0 0 0 0 0 0 0 0 
0 0 0 0 0 0 0 0 0 
0 0 0 0 0 0 0 0 0 
0 0 0 0 0 0 0 0 0 
0 0 0 0 0 0 0 0 0 
0 0 0 0 0 0 0 0 0 
0 0 0 0 0 0 0 0 0 
0 0 0 0 0 0 0 0 0 
0 0 0 0 0 0 0 0 0 
0 0 0 0 0 0 0 0 0 
0 0 0 0 0 0 0 0 0 
0 0 0 0 0 0 0 0 0 
0 0 0 0 0 0 0 0 0 
0 0 0 0 0 0 0 0 0 
0 0 0 0 0 0 0 0 0 
0 0 0 0 0 0 0 0 0 
0 0 0 0 0 0 0 0 0 
0 0 0 0 0 0 0 0 0 
0 0 0 0 0 0 0 0 0 
0 0 0 0 0 0 0 0 0 
0 0 0 0 0 0 0 0 0 
0 0 0 0 0 0 0 0 0 
0 0 0 0 0 0 0 0 0 
0 0 0 0 0 0 0 0 0 
0 0 0 0 0 0 0 0 0 
0 0 0 0 0 0 0 0 0 
0 0 0 0 0 0 0 0 0 
0 0 0 0 0 0 0 0 0 
0 0 0 0 0 0 0 0 0 
0 0 0 0 0 0 0 0 0 
0 0 0 0 0 0 0 0 0 
0 0 0 0 0 0 0 0 0 
0 0 0 0 0 0 0 0 0 
0 0 0 0 0 0 0 0 0 
0 0 0 0 0 0 0 0 0 
0 0 0 0 0 0 0 0 0 
0 0 0 0 0 0 0 0 0 
0 0 0 0 0 0 0 0 0 
0 0 0 0 0 0 0 0 0 
0 0 0 0 0 0 0 0 0 
0 0 0 0 0 0 0 0 0 
0 0 0 0 0 0 0 0 0 
0 0 0 0 0 0 0 0 0 
0 0 0 0 0 0 0 0 0 
0 0 0 0 0 0 0 0 0 
0 0 0 0 0 0 0 0 0 
0 0 0 0 0 0 0 0 0 
0 0 0 0 0 0 0 0 0 
0 0 0 0 0 0 0 0 0 
0 0 0 0 0 0 0 0 0 
0 0 0 0 0 0 0 0 0 
0 0 0 0 0 0 0 0 0 
0 0 0 0 0 0 0 0 0 
0 0 0 0 0 0 0 0 0 
0 0 0 0 0 0 0 0 0 
0 0 0 0 0 0 0 0 0 
0 0 0 0 0 0 0 0 0 
0 0 0 0 0 0 0 0 0 
0 0 0 0 0 0 0 0 0 
0 0 0 0 0 0 0 0 0 
0 0 0 0 0 0 0 0 0 
0 0 0 0 0 0 0 0 0 
0 0 0 0 0 0 0 0 0 
0 0 0 0 0 0 0 0 0 
0 0 0 0 0 0 0 0 0 
0 0 0 0 0 0 0 0 0 
0 0 0 0 0 0 0 0 0 
0 0 0 0 0 0 0 0 0 
0 0 0 0 0 0 0 0 0 
0 0 0 0 0 0 0 0 0 
0 0 0 0 0 0 0 0 0 
0 0 0 0 0 0 0 0 0 
0 0 0 0 0 0 0 0 0 
0 0 0 0 0 0 0 0 0 
0 0 0 0 0 0 0 0 0 
0 0 0 0 0 0 0 0 0 
0 0 0 0 0 0 0 0 0 
0 0 0 0 0 0 0 0 0 
0 0 0 0 0 0 0 0 0 
0 0 0 0 0 0 0 0 0 
0 0 0 0 0 0 0 0 0 
0 0 0 0 0 0 0 0 0 
0 0 0 0 0 0 0 0 0 
0 0 0 0 0 0 0 0 0 
0 0 0 0 0 0 0 0 0 
0 0 0 0 0 0 0 0 0 
0 0 0 0 0 0 0 0 0 
0 0 0 0 0 0 0 0 0 
0 0 0 0 0 0 0 0 0 
0 0 0 0 0 0 0 0 0 
0 0 0 0 0 0 0 0 0 
0 0 0 0 0 0 0 0 0 
0 0 0 0 0 0 0 0 0 
0 0 0 0 0 0 0 0 0 
0 0 0 0 0 0 0 0 0 
0 0 0 0 0 0 0 0 0 
0 0 0 0 0 0 0 0 0 
0 0 0 0 0 0 0 0 0 
0 0 0 0 0 0 0 0 0 
0 0 0 0 0 0 0 0 0 
0 0 0 0 0 0 0 0 0 
0 0 0 0 0 0 0 0 0 
0 0 0 0 0 0 0 0 0 
0 0 0 0 0 0 0 0 0 
0 0 0 0 0 0 0 0 0 
0 0 0 0 0 0 0 0 0 
0 0 0 0 0 0 0 0 0 
0 0 0 0 0 0 0 0 0 
0 0 0 0 0 0 0 0 0 
0 0 0 0 0 0 0 0 0 
0 0 0 0 0 0 0 0 0 
0 0 0 0 0 0 0 0 0 
0 0 0 0 0 0 0 0 0 
0 0 0 0 0 0 0 0 0 
0 0 0 0 0 0 0 0 0 
0 0 0 0 0 0 0 0 0 
0 0 0 0 0 0 0 0 0 
0 0 0 0 0 0 0 0 0 
0 0 0 0 0 0 0 0 0 
0 0 0 0 0 0 0 0 0 
0 0 0 0 0 0 0 0 0 
0 0 0 0 0 0 0 0 0 
0 0 0 0 0 0 0 0 0 
0 0 0 0 0 0 0 0 0 
0 0 0 0 0 0 0 0 0 
0 0 0 0 0 0 0 0 0 
0 0 0 0 0 0 0 0 0 
0 0 0 0 0 0 0 0 0 
0 0 0 0 0 0 0 0 0 
0 0 0 0 0 0 0 0 0 
0 0 0 0 0 0 0 0 0 
0 0 0 0 0 0 0 0 0 
0 0 0 0 0 0 0 0 0 
0 0 0 0 0 0 0 0 0 
0 0 0 0 0 0 0 0 0 
0 0 0 0 0 0 0 0 0 
0 0 0 0 0 0 0 0 0 
0 0 0 0 0 0 0 0 0 
0 0 0 0 0 0 0 0 0 
0 0 0 0 0 0 0 0 0 
0 0 0 0 0 0 0 0 0 
0 0 0 0 0 0 0 0 0 
0 0 0 0 0 0 0 0 0 
0 0 0 0 0 0 0 0 0 
0 0 0 0 0 0 0 0 0 
0 0 0 0 0 0 0 0 0 
0 0 0 0 0 0 0 0 0 
0 0 0 0 0 0 0 0 0 
0 0 0 0 0 0 0 0 0 
0 0 0 0 0 0 0 0 0 
0 0 0 0 0 0 0 0 0 
0 0 0 0 0 0 0 0 0 
0 0 0 0 0 0 0 0 0 
0 0 0 0 0 0 0 0 0 
0 0 0 0 0 0 0 0 0 
0 0 0 0 0 0 0 0 0 
0 0 0 0 0 0 0 0 0 
0 0 0 0 0 0 0 0 0 
0 0 0 0 0 0 0 0 0 
0 0 0 0 0 0 0 0 0 
0 0 0 0 0 0 0 0 0 
0 0 0 0 0 0 0 0 0 
0 0 0 0 0 0 0 0 0 
0 0 0 0 0 0 0 0 0 
0 0 0 0 0 0 0 0 0 
0 0 0 0 0 0 0 0 0 
0 0 0 0 0 0 0 0 0 
0 0 0 0 0 0 0 0 0 
0 0 0 0 0 0 0 0 0 
0 0 0 0 0 0 0 0 0 
0 0 0 0 0 0 0 0 0 
0 0 0 0 0 0 0 0 0 
0 0 0 0 0 0 0 0 0 
0 0 0 0 0 0 0 0 0 
0 0 0 0 0 0 0 0 0 
0 0 0 0 0 0 0 0 0 
0 0 0 0 0 0 0 0 0 
0 0 0 0 0 0 0 0 0 
0 0 0 0 0 0 0 0 0 
0 0 0 0 0 0 0 0 0 
0 0 0 0 0 0 0 0 0 
0 0 0 0 0 0 0 0 0 
0 0 0 0 0 0 0 0 0 
0 0 0 0 0 0 0 0 0 
0 0 0 0 0 0 0 0 0 
0 0 0 0 0 0 0 0 0 
0 0 0 0 0 0 0 0 0 
0 0 0 0 0 0 0 0 0 
0 0 0 0 0 0 0 0 0 
0 0 0 0 0 0 0 0 0 
0 0 0 0 0 0 0 0 0 
0 0 0 0 0 0 0 0 0 
0 0 0 0 0 0 0 0 0 
0 0 0 0 0 0 0 0 0 
0 0 0 0 0 0 0 0 0 
0 0 0 0 0 0 0 0 0 
0 0 0 0 0 0 0 0 0 
0 0 0 0 0 0 0 0 0 
0 0 0 0 0 0 0 0 0 
0 0 0 0 0 0 0 0 0 
0 0 0 0 0 0 0 0 0 
0 0 0 0 0 0 0 0 0 
0 0 0 0 0 0 0 0 0 
0 0 0 0 0 0 0 0 0 
0 0 0 0 0 0 0 0 0 
0 0 0 0 0 0 0 0 0 
0 0 0 0 0 0 0 0 0 
0 0 0 0 0 0 0 0 0 
0 0 0 0 0 0 0 0 0 
0 0 0 0 0 0 0 0 0 
0 0 0 0 0 0 0 0 0 
0 0 0 0 0 0 0 0 0 
0 0 0 0 0 0 0 0 0 
0 0 0 0 0 0 0 0 0 
0 0 0 0 0 0 0 0 0 
0 0 0 0 0 0 0 0 0 
0 0 0 0 0 0 0 0 0 
0 0 0 0 0 0 0 0 0 
0 0 0 0 0 0 0 0 0 
0 0 0 0 0 0 0 0 0 
0 0 0 0 0 0 0 0 0 
0 0 0 0 0 0 0 0 0 
0 0 0 0 0 0 0 0 0 
0 0 0 0 0 0 0 0 0 
0 0 0 0 0 0 0 0 0 
0 0 0 0 0 0 0 0 0 
0 0 0 0 0 0 0 0 0 
0 0 0 0 0 0 0 0 0 
0 0 0 0 0 0 0 0 0 
0 0 0 0 0 0 0 0 0 
0 0 0 0 0 0 0 0 0 
0 0 0 0 0 0 0 0 0 
0 0 0 0 0 0 0 0 0 
0 0 0 0 0 0 0 0 0 
0 0 0 0 0 0 0 0 0 
0 0 0 0 0 0 0 0 0 
0 0 0 0 0 0 0 0 0 
0 0 0 0 0 0 0 0 0 
0 0 0 0 0 0 0 0 0 
0 0 0 0 0 0 0 0 0 
0 0 0 0 0 0 0 0 0 
0 0 0 0 0 0 0 0 0 
0 0 0 0 0 0 0 0 0 
0 0 0 0 0 0 0 0 0 
0 0 0 0 0 0 0 0 0 
0 0 0 0 0 0 0 0 0 
0 0 0 0 0 0 0 0 0 
0 0 0 0 0 0 0 0 0 
0 0 0 0 0 0 0 0 0 
0 0 0 0 0 0 0 0 0 
0 0 0 0 0 0 0 0 0 
0 0 0 0 0 0 0 0 0 
0 0 0 0 0 0 0 0 0 
0 0 0 0 0 0 0 0 0 
0 0 0 0 0 0 0 0 0 
0 0 0 0 0 0 0 0 0 
0 0 0 0 0 0 0 0 0 
0 0 0 0 0 0 0 0 0 
0 0 0 0 0 0 0 0 0 
0 0 0 0 0 0 0 0 0 
0 0 0 0 0 0 0 0 0 
0 0 0 0 0 0 0 0 0 
0 0 0 0 0 0 0 0 0 
0 0 0 0 0 0 0 0 0 
0 0 0 0 0 0 0 0 0 
0 0 0 0 0 0 0 0 0 
0 0 0 0 0 0 0 0 0 
0 0 0 0 0 0 0 0 0 
0 0 0 0 0 0 0 0 0 
0 0 0 0 0 0 0 0 0 
0 0 0 0 0 0 0 0 0 
0 0 0 0 0 0 0 0 0 
0 0 0 0 0 0 0 0 0 
0 0 0 0 0 0 0 0 0 
0 0 0 0 0 0 0 0 0 
0 0 0 0 0 0 0 0 0 
0 0 0 0 0 0 0 0 0 
0 0 0 0 0 0 0 0 0 
0 0 0 0 0 0 0 0 0 
0 0 0 0 0 0 0 0 0 
0 0 0 0 0 0 0 0 0 
0 0 0 0 0 0 0 0 0 
0 0 0 0 0 0 0 0 0 
0 0 0 0 0 0 0 0 0 
0 0 0 0 0 0 0 0 0 
0 0 0 0 0 0 0 0 0 
0 0 0 0 0 0 0 0 0 
0 0 0 0 0 0 0 0 0 
0 0 0 0 0 0 0 0 0 
0 0 0 0 0 0 0 0 0 
0 0 0 0 0 0 0 0 0 
0 0 0 0 0 0 0 0 0 
0 0 0 0 0 0 0 0 0 
0 0 0 0 0 0 0 0 0 
0 0 0 0 0 0 0 0 0 
0 0 0 0 0 0 0 0 0 
0 0 0 0 0 0 0 0 0 
0 0 0 0 0 0 0 0 0 
0 0 0 0 0 0 0 0 0 
0 0 0 0 0 0 0 0 0 
0 0 0 0 0 0 0 0 0 
0 0 0 0 0 0 0 0 0 
0 0 0 0 0 0 0 0 0 
0 0 0 0 0 0 0 0 0 
0 0 0 0 0 0 0 0 0 
0 0 0 0 0 0 0 0 0 
0 0 0 0 0 0 0 0 0 
0 0 0 0 0 0 0 0 0 
0 0 0 0 0 0 0 0 0 
0 0 0 0 0 0 0 0 0 
0 0 0 0 0 0 0 0 0 
0 0 0 0 0 0 0 0 0 
0 0 0 0 0 0 0 0 0 
0 0 0 0 0 0 0 0 0 
0 0 0 0 0 0 0 0 0 
0 0 0 0 0 0 0 0 0 
0 0 0 0 0 0 0 0 0 
0 0 0 0 0 0 0 0 0 
0 0 0 0 0 0 0 0 0 
0 0 0 0 0 0 0 0 0 
0 0 0 0 0 0 0 0 0 
0 0 0 0 0 0 0 0 0 
0 0 0 0 0 0 0 0 0 
0 0 0 0 0 0 0 0 0 
0 0 0 0 0 0 0 0 0 
0 0 0 0 0 0 0 0 0 
0 0 0 0 0 0 0 0 0 
0 0 0 0 0 0 0 0 0 
0 0 0 0 0 0 0 0 0 
0 0 0 0 0 0 0 0 0 
0 0 0 0 0 0 0 0 0 

v 3 1245 double
0 0 1.24842e-11 0 0 -0.18291 -0.00273215 0.00426215 -4.299 
-0.0618403 0.0868941 -4.47546 -0.0777136 -0.0485272 -3.99385 0 0 -5.69027 
0.063652 -0.0356487 -3.99507 0 0 -3.90485 0.195064 -0.274091 -4.49135 
-0.247426 -0.309737 -2.96566 0 0 -0.442359 0 0 -0.0350019 
0.102362 0.0185489 0.0536659 -0.114375 0.0698456 0.310347 0.0201279 -0.138005 -4.40968 
-0.0291418 -0.0502452 -3.65041 -0.426167 0.0812885 -3.75795 0.039888 -0.0622251 -4.3596 
-0.632513 0.109242 -4.60372 -0.063493 0.435334 -4.59254 0 0 -3.60417 
-0.245211 -0.375711 0.00287894 -0.0967078 -0.047704 -0.220003 0 0 -0.30197 
-0.0921734 -1.37291 0.21707 0 0 -3.59902 0.968159 -0.471851 -0.766649 
-1.0649 -0.398517 -4.35474 -1.36068 -0.370414 -0.263124 0 0 0.0508593 
0.423824 0.243313 -4.79998 0.0325719 -0.13726 -5.11903 0.125559 0.144424 -4.37408 
-0.0984172 -0.0512496 -3.76666 0.121526 -0.511079 -5.04078 -0.0399791 0.30846 -4.79145 
-0.0410424 0.00821622 -4.4612 0.149216 -0.252156 -4.15943 -0.136333 -0.00150227 -0.0451807 
0.0567102 -0.0104155 1.13521 -0.466317 0.257706 -5.00731 1.35813 0.0149655 -4.88338 
0 0 -4.54372 -0.776062 0.503595 -4.30806 1.02936 0.312084 -3.63325 
-0.152559 0.798005 -4.60574 0 0 -3.63728 0 0 0.155094 
0 0 -4.56481 0 0 -4.68204 0.0257186 -0.0235697 -4.12984 
0.698112 0.868168 -4.43406 -0.0377217 0.0345699 -4.10202 -0.178288 0.749788 -3.15931 
0.0298308 -0.196947 -4.87844 0 0 -4.35096 0.388533 -0.459686 -4.91323 
0 0 -5.06905 0 0 -0.000643483 0.0450854 0.100219 0.0770439 
-0.0201752 -0.0448469 0.135381 0 0 0.460558 0 0 -5.25691 
-0.0543106 -0.116226 -5.17735 0 0 -3.73145 0 0 -4.76788 
-0.339372 -0.0877807 -5.15322 0 0 -5.49382 -0.772783 -1.87207 0.229342 
-2.35365 -5.66853 0.765463 0 0 0.00209991 0 0 0.28572 
0.769604 1.28572 -2.45112 0.405975 0.834563 -2.69988 0 0 -4.01496 
0 0 -5.48793 -0.602731 1.46625 -3.37524 -1.11472 -0.788646 -4.00854 
-0.240434 -0.0803965 -4.6859 0.186311 0.109167 -4.52665 0 0 0.00395672 
0 0 -0.20119 0 0 -0.220055 -0.0114826 -0.0125648 -3.92111 
-0.101755 0.206624 -5.58803 -0.0545931 0.0590972 -4.88611 0.0612203 0.0454207 -3.84198 
7.70635e-05 0.0403052 -4.35751 0.0512442 -0.00965899 -4.64473 0 0 -2.52497e-07 
0.739052 -0.0659968 -0.00088968 0 0 -0.398545 -0.069838 -0.134435 0.416138 
-0.782861 -1.05062 0.00398287 0.217437 0.247939 -4.42407 0.0168946 0.174257 -4.47588 
0.265631 0.102784 -3.40779 0.107947 0.289916 1.14567 0.429468 0.442315 -4.27545 
0.677658 0.105083 -5.33796 0 0 -0.32377 0 0 0.136313 
0 0 0.137739 0.499294 0.384213 -5.39535 -0.321183 0.0113043 -4.66812 
-0.184945 0.0368946 -5.16325 0 0 -4.9864 0.0338803 -0.251478 -3.06829 
-0.749148 0.972614 -3.29536 0 0 -0.446096 0 0 -0.0493687 
0 0 0.0943424 0 0 -5.08474 -0.0333369 -0.0135725 -3.7131 
0.541028 -0.0358604 -4.57256 -0.641175 -0.777521 -4.42925 -0.0481538 0.195469 -4.1627 
0.203123 0.246317 -5.01698 0.484851 -0.0963928 -3.83074 0 0 1.50957e-11 
0 0 -0.0244168 0 0 -0.0185132 0 0 0.104191 
-0.246035 -0.259592 -4.70284 0 0 -5.68021 -0.00033587 0.0219317 -3.26695 
0.809971 0.312943 0.061689 0 0 -0.00588035 0 0 0.178167 
-0.900255 -0.510253 -4.36932 0.00298409 -0.0169273 -3.37911 0 0 -4.82821 
-0.039724 -0.0484978 -5.4134 -0.0138062 0.0783161 -3.64738 0.0169193 -0.0753836 -3.70091 
0 0 -0.395451 0 0 0.116948 0 0 0.907456 
-0.0796145 -0.117422 -4.8584 0.04279 0.108891 -4.66064 -0.687065 -0.0229754 -4.26048 
0.686954 -0.104307 -3.98718 0 0 -3.6569 -0.0688601 -0.0461943 -4.97274 
0 0 0.00381685 0 0 -0.0731758 0 0 0.261264 
-0.0212886 0.117373 0.43155 -0.0744291 0.0434247 -4.53371 0 0 -4.9734 
0 0 -5.32116 0.00615759 0.014853 -4.60087 0.234842 -0.137015 -4.54234 
0 0 -2.75659 0.323797 0.231538 -5.12623 -0.132199 0.0543887 -4.66259 
0.611479 -0.0914296 0.0244542 0 0 -0.342947 0 0 0.485886 
-1.72138 0.257385 -3.50375 0.27769 0.0407646 -5.67421 0 0 -4.65948 
0 0 -5.00283 0 0 5.18464e-05 0.215116 0.0900884 -0.254474 
0.819037 1.03377 0.00018239 -0.247542 -0.1919 0.286387 0 0 -4.52925 
0 0 -4.43851 0.503401 -0.560069 -3.66757 0 0 -5.1078 
0.228947 0.508911 -4.83431 -0.241502 0.0995281 -4.33436 -0.0678135 0.00755289 -3.55145 
0 0 -4.11674 0 0 -4.26708 -0.0409797 -0.302151 -4.61778 