# vtk DataFile Version 4.0
Generated by LIGGGHTS
ASCII
DATASET POLYDATA
POINTS 538 float
0.0101747 0.00455269 0.0116574 0.00411822 0.00437912 0.0108755 0.00639222 0.00213942 0.0121393 
0.00310636 0.00662161 0.0116573 0.000677967 0.00742992 0.010678 0.00687116 0.00651745 0.0121393 
0.00217392 0.00344756 0.0106779 0.00421164 0.000770578 0.0107705 0.00077065 0.00598741 0.0107704 
0.00220507 0.00145879 0.0114587 0.00565819 0.00443602 0.010678 0.00388503 0.0027526 0.0107705 
0.00794471 0.0041848 0.0107704 0.00077047 0.00302021 0.0107704 0.000770467 0.000770479 0.0130201 
0.00118708 0.00450379 0.0107705 0.00261944 0.000994463 0.0138317 0.000875486 0.0031252 0.0124096 
0.00270012 0.00466981 0.0105965 0.00251397 0.00409084 0.0121837 0.00440023 0.0045725 0.0130347 
0.00830842 0.004145 0.0133207 0.000994429 0.00682972 0.0132476 0.00348065 0.00266237 0.0131742 
0.00985941 0.00145879 0.0114587 0.000770486 0.00518713 0.0120873 0.0102106 0.00752116 0.0125192 
0.002165 0.00527706 0.0135865 0.00879407 0.000875473 0.0134521 0.0114726 0.000994483 0.0132477 
0.000770472 0.00441821 0.0134227 0.00958317 0.00688819 0.0108754 0.0113934 0.00679588 0.0137729 
0.0120302 0.00570632 0.0127162 0.0120468 0.0058188 0.0107704 0.0125911 0.00128393 0.0112839 
0.015211 0.00617941 0.01113 0.0224968 0.00367159 0.0114587 0.0165821 0.00400819 0.0114588 
0.0195608 0.00441846 0.0112839 0.0228699 0.00113009 0.01113 0.0145129 0.000770451 0.0107704 
0.0160581 0.00195364 0.0107704 0.020897 0.000875479 0.0108754 0.0214749 0.00561141 0.010678 
0.0167378 0.00067794 0.010678 0.0186181 0.00165739 0.0116574 0.02287 0.00789846 0.01113 
0.017084 0.00750396 0.0118816 0.0179552 0.00580352 0.0108754 0.02287 0.0063893 0.0128124 
0.0134726 0.00406519 0.0116574 0.0198233 0.00714305 0.0114587 0.0230055 0.00191874 0.0130981 
0.0231244 0.00584319 0.0108755 0.0230055 0.00446981 0.013722 0.0211936 0.00543255 0.0122681 
0.0150812 0.00162901 0.0127477 0.02146 0.000875483 0.0125334 0.0129678 0.00804477 0.011883 
0.0200682 0.000994485 0.0137765 0.00903287 0.0090305 0.0112839 0.00459568 0.012159 0.0112839 
0.00788966 0.014186 0.0121393 0.00636192 0.00887177 0.0106779 0.00422458 0.0150529 0.0116573 
0.0111467 0.0108147 0.0114587 0.00445155 0.00942556 0.0114587 0.00113002 0.011806 0.01113 
0.00145881 0.00925927 0.0114587 0.00835499 0.0118217 0.010678 0.000770476 0.0136373 0.0107704 
0.00192972 0.0157865 0.0108754 0.00969612 0.0123611 0.0107704 0.00113007 0.0146615 0.0123305 
0.00689455 0.0106601 0.0112839 0.0102757 0.00931999 0.013026 0.000677983 0.0129175 0.0124825 
0.00287165 0.0108459 0.0126856 0.00883814 0.0109927 0.0129289 0.0114889 0.0131992 0.0109944 
0.00258657 0.0129365 0.012437 0.00602136 0.0118331 0.0130311 0.00280439 0.0171481 0.012825 
0.010658 0.00799381 0.010678 0.00448814 0.0130518 0.0133775 0.0106855 0.0150194 0.0109944 
0.000526029 0.0152753 0.010525 0.00077049 0.0161749 0.0134225 0.0113001 0.0142033 0.0125606 
0.0184858 0.0109378 0.0118691 0.015524 0.00902361 0.0109944 0.0165213 0.00958219 0.012627 
0.0173208 0.0154632 0.0112839 0.0142098 0.0113526 0.0116574 0.0205436 0.0107037 0.0109944 
0.0152471 0.0164028 0.0108754 0.0184747 0.00932837 0.01113 0.0218157 0.0127494 0.0114587 
0.0189318 0.0110182 0.0106779 0.0211813 0.00894988 0.0108754 0.0169284 0.0110337 0.01113 
0.0228687 0.0102419 0.01113 0.020417 0.0157547 0.011883 0.0159343 0.0146214 0.0127095 
0.0186036 0.0129799 0.0114587 0.0160648 0.0133654 0.01113 0.0230055 0.0139757 0.0132191 
0.0125081 0.0104083 0.0134588 0.0142574 0.0157407 0.013716 0.0200982 0.0113121 0.0133288 
0.0231244 0.0145922 0.0108754 0.0150536 0.0131858 0.0131881 0.0232295 0.0154505 0.012276 
0.014787 0.00953529 0.0133247 0.0136302 0.0146164 0.0116574 0.0230056 0.0166432 0.0109944 
0.00087541 0.0174154 0.0123458 0.00630927 0.0166382 0.0109944 0.0100616 0.0167919 0.0133391 
0.000770491 0.0169503 0.0107704 0.00629726 0.0238839 0.0114587 0.00310648 0.0197575 0.0109944 
0.00825025 0.0244139 0.010678 0.00128397 0.0213942 0.0112839 0.00698906 0.0212778 0.0108754 
0.0040704 0.0222921 0.0112838 0.00113006 0.0189899 0.01113 0.00241284 0.0174694 0.0108754 
0.00530289 0.0202223 0.01113 0.00997623 0.0200782 0.0107704 0.0104303 0.0184997 0.0108754 
0.00275089 0.0229835 0.0133755 0.00898884 0.0165379 0.0107705 0.000770478 0.023316 0.0107704 
0.00610036 0.0216599 0.0124757 0.00300406 0.0208289 0.012667 0.00788959 0.0188728 0.011883 
0.00447589 0.0179596 0.0112839 0.00930301 0.0223913 0.011883 0.00470501 0.0194732 0.0133456 
0.000994405 0.0240292 0.0123692 0.00573279 0.017029 0.0126161 0.00448495 0.0216366 0.0131863 
0.00470127 0.023382 0.0127884 0.0105842 0.0245824 0.0125984 0.00805478 0.0246141 0.0126196 
0.0110503 0.0244979 0.0109944 0.00291845 0.0245871 0.0112839 0.0120399 0.023421 0.012616 
0.0120574 0.0228787 0.010678 0.000875484 0.0251553 0.0108755 0.0118714 0.0169443 0.0112839 
0.0158398 0.0167795 0.0129174 0.0122179 0.018565 0.012498 0.0132978 0.0167992 0.0128987 
0.0170233 0.0178895 0.01113 0.013928 0.0223439 0.0109944 0.0149939 0.0240236 0.0109944 
0.0231221 0.0227355 0.0108755 0.019438 0.0187064 0.0112839 0.0120482 0.0205299 0.0114587 
0.0153647 0.0227409 0.0126468 0.018192 0.0218474 0.0107703 0.0169713 0.0232588 0.01113 
0.0185444 0.0170228 0.010678 0.0233343 0.0213044 0.0105965 0.0223263 0.0191194 0.0116574 
0.014184 0.0184085 0.0114588 0.0154983 0.0213386 0.0107705 0.0160224 0.0194645 0.0107702 
0.0205766 0.0221895 0.011883 0.0145396 0.0208114 0.012215 0.0231245 0.0170168 0.0128227 
0.0140322 0.0203916 0.0106778 0.0173223 0.02046 0.0128583 0.0132783 0.0219793 0.0126233 
0.017571 0.025484 0.0128632 0.0181471 0.0233513 0.0128971 0.0231246 0.0213574 0.0125345 
0.0230055 0.0231326 0.0131099 0.00935402 0.0264255 0.0116574 0.00946269 0.028683 0.0107704 
0.00747368 0.0286564 0.0112839 0.0086719 0.0322031 0.01113 0.00131863 0.0320511 0.0112839 
0.00341111 0.0271073 0.0112839 0.000994453 0.0270177 0.0109944 0.00535328 0.0286454 0.0108754 
0.00611122 0.0312363 0.0116574 0.00592937 0.0266047 0.0112839 0.0107448 0.0313023 0.01113 
0.00889863 0.0302267 0.0108754 0.00165736 0.0292798 0.0122095 0.00460821 0.025321 0.0130729 
0.00394062 0.0298648 0.0109943 0.00494088 0.028212 0.0127896 0.00164209 0.026016 0.0127524 
0.00330849 0.0311994 0.0121414 0.00713599 0.0261239 0.0133187 0.00744128 0.025511 0.0106779 
0.000770469 0.0274858 0.0135843 0.00214122 0.0336025 0.0117185 0.0034938 0.0326646 0.0109944 
0.00933225 0.0292947 0.0122929 0.000596482 0.0311826 0.0127874 0.0124471 0.0313386 0.0128413 
0.0117219 0.0287454 0.0116574 0.00764477 0.0334042 0.0121858 0.00704535 0.0332943 0.0107704 
0.0116133 0.0264879 0.0107704 0.000875479 0.033595 0.0127273 0.018972 0.0262454 0.0125946 
0.0121526 0.0305619 0.010525 0.0223425 0.0252499 0.0116573 0.0130348 0.0243665 0.0109944 
0.016562 0.0254816 0.01113 0.0127417 0.0261006 0.0124429 0.0201794 0.0260583 0.0120065 
0.015126 0.0250854 0.0128298 0.0188695 0.024789 0.0112839 0.0144938 0.0259487 0.0109944 
0.0157908 0.0274566 0.0109944 0.0180493 0.0273768 0.0112839 0.0144375 0.0290887 0.01113 
0.013119 0.0324913 0.0109944 0.0225412 0.0314057 0.0114587 0.0199089 0.0264559 0.010678 
0.0153154 0.0315019 0.0114587 0.0196265 0.0315365 0.0114587 0.0234018 0.0270393 0.0105965 
0.0165185 0.0291765 0.0120072 0.013559 0.0274289 0.0107704 0.018416 0.029279 0.0119713 
0.0173455 0.0317916 0.010678 0.023247 0.0283024 0.010678 0.0209503 0.0284975 0.011883 
0.0135433 0.0305945 0.010678 0.0177342 0.0303005 0.0108754 0.0174743 0.0310921 0.0125494 
0.0143901 0.0274294 0.012068 0.0198157 0.0332535 0.0130291 0.0198116 0.0336487 0.0107704 
0.023322 0.0331032 0.0124954 0.0232296 0.0273208 0.0125627 0.000994468 0.0342877 0.0109944 
0.000875478 0.03615 0.0108754 0.00274469 0.0342469 0.0107704 0.000875444 0.037901 0.0108754 
0.00605495 0.0355518 0.010678 0.0114705 0.0406956 0.0121393 0.00787009 0.0349684 0.01113 
0.00691521 0.0375337 0.0116573 0.00387973 0.0362014 0.0116574 0.00682003 0.0408473 0.0116573 
0.00945934 0.0366344 0.0109944 0.00396423 0.0393101 0.0114587 0.00934551 0.0386205 0.0109944 
0.00128397 0.0399817 0.0112839 0.00525994 0.0338377 0.01113 0.00128397 0.0357039 0.0129483 
0.0105069 0.034234 0.0116574 0.0048891 0.0380258 0.0135075 0.00482397 0.0405261 0.0135764 
0.00198306 0.0380431 0.0125413 0.00892466 0.0401038 0.0105965 0.00866834 0.0392421 0.0129907 
0.00623165 0.0351725 0.0122685 0.00910975 0.0413633 0.010678 0.0129135 0.0343461 0.0108754 
0.00260696 0.0406976 0.0131719 0.0174361 0.0340497 0.011883 0.0147078 0.033833 0.0109944 
0.0212219 0.0334438 0.0118114 0.0138951 0.0391589 0.0130613 0.0181126 0.0367017 0.0109944 
0.0230057 0.0337694 0.0109944 0.0128119 0.036912 0.011883 0.0157012 0.0376907 0.0109944 
0.0139916 0.0411836 0.0107704 0.0196606 0.0389611 0.011883 0.020308 0.0357101 0.0114588 
0.023229 0.040214 0.0107705 0.0152877 0.0357452 0.0109944 0.0173504 0.0382778 0.0107704 
0.022716 0.0382895 0.0112839 0.02287 0.0358853 0.01113 0.0178484 0.0407894 0.0108754 
0.0223673 0.0402294 0.0129299 0.0143964 0.0393619 0.01113 0.0162626 0.0393692 0.0107704 
0.0158881 0.0411975 0.01113 0.0170609 0.0398513 0.0121267 0.0154986 0.036717 0.0122363 
0.0143723 0.0409041 0.0122405 0.00579629 0.0491191 0.0120177 0.00336624 0.0499383 0.0133721 
0.00761905 0.0427233 0.01316 0.00393372 0.0461119 0.0122607 0.0087368 0.0484252 0.0125065 
0.00604695 0.0476407 0.0127584 0.0090542 0.0469811 0.0119748 0.00469712 0.043531 0.0128189 
0.00673391 0.0435679 0.0120589 0.00270708 0.0461956 0.0109944 0.0107747 0.0479801 0.0114587 
0.00140244 0.0454842 0.0123165 0.000875451 0.046553 0.0108754 0.00132784 0.0480617 0.0123526 
0.00371978 0.0444837 0.0109944 0.000770438 0.0449139 0.0107704 0.00708574 0.0494143 0.0109944 
0.00172588 0.0428657 0.0116574 0.011294 0.0447061 0.011883 0.00850794 0.0455723 0.01113 
0.00594001 0.0455628 0.0114587 0.00798019 0.0476265 0.0109944 0.00391152 0.0482818 0.0114587 
0.00612316 0.0478155 0.0108754 0.00859326 0.0431642 0.0112839 0.00561592 0.0433259 0.0108754 
[...]
POINT_DATA 538
FIELD FieldData 7
id 1 538 int
1 2 3 4 5 6 7 8 9 
10 11 12 13 14 15 16 17 18 
19 20 21 22 24 25 26 29 31 
33 34 35 38 39 45 55 56 57 
58 59 60 61 62 63 64 65 66 
67 68 69 70 71 72 73 76 77 
80 81 82 85 90 95 96 106 107 
108 109 110 111 112 113 114 115 116 
117 118 119 120 121 122 124 126 128 
129 131 132 133 134 141 144 155 162 
163 164 165 166 167 168 169 170 171 
172 173 174 175 176 177 178 179 181 
184 187 190 191 192 194 197 198 200 
219 220 222 223 224 225 226 227 228 
229 230 231 232 233 234 235 236 237 
238 239 240 241 242 244 245 248 250 
251 254 262 264 265 270 273 275 276 
279 283 284 285 286 287 288 289 290 
291 292 293 294 295 296 297 298 299 
300 301 302 303 305 306 308 309 310 
317 330 331 332 333 334 335 336 337 
338 339 340 341 342 343 344 346 347 
348 349 351 353 357 359 362 366 368 
375 376 379 380 382 385 386 387 388 
389 390 391 392 393 394 395 396 397 
398 399 400 401 402 403 404 405 406 
408 409 410 411 413 415 416 417 418 
419 421 435 436 437 439 440 441 442 
443 444 445 446 447 448 449 450 451 
453 455 456 457 458 459 460 466 478 
479 497 498 499 500 501 502 503 504 
505 506 507 508 509 510 511 513 514 
515 516 517 522 523 524 535 486 487 
488 489 490 491 492 493 494 495 496 
512 518 519 520 521 525 526 527 528 
529 530 531 532 533 534 536 537 538 
438 452 454 461 462 463 464 465 467 
468 469 470 471 472 473 474 475 476 
477 480 481 482 483 484 485 355 356 
358 360 361 363 364 365 367 369 370 
371 372 373 374 377 378 381 383 384 
407 412 414 420 422 423 424 425 426 
427 428 429 430 431 432 433 434 266 
267 268 269 271 272 274 277 278 280 
281 282 304 307 311 312 313 314 315 
316 318 319 320 321 322 323 324 325 
326 327 328 329 345 350 352 354 207 
208 209 210 211 212 213 214 215 216 
217 218 221 243 246 247 249 252 253 
255 256 257 258 259 260 261 263 142 
143 145 146 147 148 149 150 151 152 
153 154 156 157 158 159 160 161 180 
182 183 185 186 188 189 193 195 196 
199 201 202 203 204 205 206 86 87 
88 89 91 92 93 94 97 98 99 
100 101 102 103 104 105 123 125 127 
130 135 136 137 138 139 140 23 27 
28 30 32 36 37 40 41 42 43 
44 46 47 48 49 50 51 52 53 
54 74 75 78 79 83 84 
type 1 538 int
1 1 1 1 1 1 1 1 1 
1 1 1 1 1 1 1 1 1 
1 1 1 1 1 1 1 1 1 
1 1 1 1 1 1 1 1 1 
1 1 1 1 1 1 1 1 1 
1 1 1 1 1 1 1 1 1 
1 1 1 1 1 1 1 1 1 
1 1 1 1 1 1 1 1 1 
1 1 1 1 1 1 1 1 1 
1 1 1 1 1 1 1 1 1 
1 1 1 1 1 1 1 1 1 
1 1 1 1 1 1 1 1 1 
1 1 1 1 1 1 1 1 1 
1 1 1 1 1 1 1 1 1 
1 1 1 1 1 1 1 1 1 
1 1 1 1 1 1 1 1 1 
1 1 1 1 1 1 1 1 1 
1 1 1 1 1 1 1 1 1 
1 1 1 1 1 1 1 1 1 
1 1 1 1 1 1 1 1 1 
1 1 1 1 1 1 1 1 1 
1 1 1 1 1 1 1 1 1 
1 1 1 1 1 1 1 1 1 
1 1 1 1 1 1 1 1 1 
1 1 1 1 1 1 1 1 1 
1 1 1 1 1 1 1 1 1 
1 1 1 1 1 1 1 1 1 
1 1 1 1 1 1 1 1 1 
1 1 1 1 1 1 1 1 1 
1 1 1 1 1 1 1 1 1 
1 1 1 1 1 1 1 1 1 
1 1 1 1 1 1 1 1 1 
1 1 1 1 1 1 1 1 1 
1 1 1 1 1 1 1 1 1 
1 1 1 1 1 1 1 1 1 
1 1 1 1 1 1 1 1 1 
1 1 1 1 1 1 1 1 1 
1 1 1 1 1 1 1 1 1 
1 1 1 1 1 1 1 1 1 
1 1 1 1 1 1 1 1 1 
1 1 1 1 1 1 1 1 1 
1 1 1 1 1 1 1 1 1 
1 1 1 1 1 1 1 1 1 
1 1 1 1 1 1 1 1 1 
1 1 1 1 1 1 1 1 1 
1 1 1 1 1 1 1 1 1 
1 1 1 1 1 1 1 1 1 
1 1 1 1 1 1 1 1 1 
1 1 1 1 1 1 1 1 1 
1 1 1 1 1 1 1 1 1 
1 1 1 1 1 1 1 1 1 
1 1 1 1 1 1 1 1 1 
1 1 1 1 1 1 1 1 1 
1 1 1 1 1 1 1 1 1 
1 1 1 1 1 1 1 1 1 
1 1 1 1 1 1 1 1 1 
1 1 1 1 1 1 1 1 1 
1 1 1 1 1 1 1 1 1 
1 1 1 1 1 1 1 1 1 
1 1 1 1 1 1 1 
i 3 538 int
0 0 0 0 0 0 0 0 0 
0 0 0 0 0 0 0 0 0 
0 0 0 0 0 0 0 0 0 
0 0 0 0 0 0 0 0 0 
0 0 0 0 0 0 0 0 0 
0 0 0 0 0 0 0 0 0 
0 0 0 0 0 0 0 0 0 
0 0 0 0 0 0 0 0 0 
0 0 0 0 0 0 0 0 0 
0 0 0 0 0 0 0 0 0 
0 0 0 0 0 0 0 0 0 
0 0 0 0 0 0 0 0 0 
0 0 0 0 0 0 0 0 0 
0 0 0 0 0 0 0 0 0 
0 0 0 0 0 0 0 0 0 
0 0 0 0 0 0 0 0 0 
0 0 0 0 0 0 0 0 0 
0 0 0 0 0 0 0 0 0 
0 0 0 0 0 0 0 0 0 
0 0 0 0 0 0 0 0 0 
0 0 0 0 0 0 0 0 0 
0 0 0 0 0 0 0 0 0 
0 0 0 0 0 0 0 0 0 
0 0 0 0 0 0 0 0 0 
0 0 0 0 0 0 0 0 0 
0 0 0 0 0 0 0 0 0 
0 0 0 0 0 0 0 0 0 
0 0 0 0 0 0 0 0 0 
0 0 0 0 0 0 0 0 0 
0 0 0 0 0 0 0 0 0 
0 0 0 0 0 0 0 0 0 
0 0 0 0 0 0 0 0 0 
0 0 0 0 0 0 0 0 0 
0 0 0 0 0 0 0 0 0 
0 0 0 0 0 0 0 0 0 
0 0 0 0 0 0 0 0 0 
0 0 0 0 0 0 0 0 0 
0 0 0 0 0 0 0 0 0 
0 0 0 0 0 0 0 0 0 
0 0 0 0 0 0 0 0 0 
0 0 0 0 0 0 0 0 0 
0 0 0 0 0 0 0 0 0 
0 0 0 0 0 0 0 0 0 
0 0 0 0 0 0 0 0 0 
0 0 0 0 0 0 0 0 0 
0 0 0 0 0 0 0 0 0 
0 0 0 0 0 0 0 0 0 
0 0 0 0 0 0 0 0 0 
0 0 0 0 0 0 0 0 0 
0 0 0 0 0 0 0 0 0 
0 0 0 0 0 0 0 0 0 
0 0 0 0 0 0 0 0 0 
0 0 0 0 0 0 0 0 0 
0 0 0 0 0 0 0 0 0 
0 0 0 0 0 0 0 0 0 
0 0 0 0 0 0 0 0 0 
0 0 0 0 0 0 0 0 0 
0 0 0 0 0 0 0 0 0 
0 0 0 0 0 0 0 0 0 
0 0 0 0 0 0 0 0 0 
0 0 0 0 0 0 0 0 0 
0 0 0 0 0 0 0 0 0 
0 0 0 0 0 0 0 0 0 
0 0 0 0 0 0 0 0 0 
0 0 0 0 0 0 0 0 0 
0 0 0 0 0 0 0 0 0 
0 0 0 0 0 0 0 0 0 
0 0 0 0 0 0 0 0 0 
0 0 0 0 0 0 0 0 0 
0 0 0 0 0 0 0 0 0 
0 0 0 0 0 0 0 0 0 
0 0 0 0 0 0 0 0 0 
0 0 0 0 0 0 0 0 0 
0 0 0 0 0 0 0 0 0 
0 0 0 0 0 0 0 0 0 
0 0 0 0 0 0 0 0 0 
0 0 0 0 0 0 0 0 0 
0 0 0 0 0 0 0 0 0 
0 0 0 0 0 0 0 0 0 
0 0 0 0 0 0 0 0 0 
0 0 0 0 0 0 0 0 0 
0 0 0 0 0 0 0 0 0 
0 0 0 0 0 0 0 0 0 
0 0 0 0 0 0 0 0 0 
0 0 0 0 0 0 0 0 0 
0 0 0 0 0 0 0 0 0 
0 0 0 0 0 0 0 0 0 
0 0 0 0 0 0 0 0 0 
0 0 0 0 0 0 0 0 0 
0 0 0 0 0 0 0 0 0 
0 0 0 0 0 0 0 0 0 
0 0 0 0 0 0 0 0 0 
0 0 0 0 0 0 0 0 0 
0 0 0 0 0 0 0 0 0 
0 0 0 0 0 0 0 0 0 
0 0 0 0 0 0 0 0 0 
0 0 0 0 0 0 0 0 0 
0 0 0 0 0 0 0 0 0 
0 0 0 0 0 0 0 0 0 
0 0 0 0 0 0 0 0 0 
0 0 0 0 0 0 0 0 0 
0 0 0 0 0 0 0 0 0 
0 0 0 0 0 0 0 0 0 
0 0 0 0 0 0 0 0 0 
0 0 0 0 0 0 0 0 0 
0 0 0 0 0 0 0 0 0 
0 0 0 0 0 0 0 0 0 
0 0 0 0 0 0 0 0 0 
0 0 0 0 0 0 0 0 0 
0 0 0 0 0 0 0 0 0 
0 0 0 0 0 0 0 0 0 
0 0 0 0 0 0 0 0 0 
0 0 0 0 0 0 0 0 0 
0 0 0 0 0 0 0 0 0 
0 0 0 0 0 0 0 0 0 
0 0 0 0 0 0 0 0 0 
0 0 0 0 0 0 0 0 0 
0 0 0 0 0 0 0 0 0 
0 0 0 0 0 0 0 0 0 
0 0 0 0 0 0 0 0 0 
0 0 0 0 0 0 0 0 0 
0 0 0 0 0 0 0 0 0 
0 0 0 0 0 0 0 0 0 
0 0 0 0 0 0 0 0 0 
0 0 0 0 0 0 0 0 0 
0 0 0 0 0 0 0 0 0 
0 0 0 0 0 0 0 0 0 
0 0 0 0 0 0 0 0 0 
0 0 0 0 0 0 0 0 0 
0 0 0 0 0 0 0 0 0 
0 0 0 0 0 0 0 0 0 
0 0 0 0 0 0 0 0 0 
0 0 0 0 0 0 0 0 0 
0 0 0 0 0 0 0 0 0 
0 0 0 0 0 0 0 0 0 
0 0 0 0 0 0 0 0 0 
0 0 0 0 0 0 0 0 0 
0 0 0 0 0 0 0 0 0 
0 0 0 0 0 0 0 0 0 
0 0 0 0 0 0 0 0 0 
0 0 0 0 0 0 0 0 0 
0 0 0 0 0 0 0 0 0 
0 0 0 0 0 0 0 0 0 
0 0 0 0 0 0 0 0 0 
0 0 0 0 0 0 0 0 0 
0 0 0 0 0 0 0 0 0 
0 0 0 0 0 0 0 0 0 
0 0 0 0 0 0 0 0 0 
0 0 0 0 0 0 0 0 0 
0 0 0 0 0 0 0 0 0 
0 0 0 0 0 0 0 0 0 
0 0 0 0 0 0 0 0 0 
0 0 0 0 0 0 0 0 0 
0 0 0 0 0 0 0 0 0 
0 0 0 0 0 0 0 0 0 
0 0 0 0 0 0 0 0 0 
0 0 0 0 0 0 0 0 0 
0 0 0 0 0 0 0 0 0 
0 0 0 0 0 0 0 0 0 
0 0 0 0 0 0 0 0 0 
0 0 0 0 0 0 0 0 0 
0 0 0 0 0 0 0 0 0 
0 0 0 0 0 0 0 0 0 
0 0 0 0 0 0 0 0 0 
0 0 0 0 0 0 0 0 0 
0 0 0 0 0 0 0 0 0 
0 0 0 0 0 0 0 0 0 
0 0 0 0 0 0 0 0 0 
0 0 0 0 0 0 0 0 0 
0 0 0 0 0 0 0 0 0 
0 0 0 0 0 0 0 0 0 
0 0 0 0 0 0 0 0 0 
0 0 0 0 0 0 0 0 0 
0 0 0 0 0 0 0 0 0 
0 0 0 0 0 0 0 0 0 
0 0 0 0 0 0 0 0 0 
0 0 0 0 0 0 0 0 0 
0 0 0 0 0 0 0 0 0 
0 0 0 0 0 0 0 0 0 
0 0 0 
v 3 538 double
-0.000158185 -0.000101373 6.91034e-05 -0.000216813 -0.000604753 1.72068e-11 -0.000113187 -2.34604e-05 9.21019e-06 
8.03775e-05 9.41565e-05 6.57145e-05 -1.82778e-05 -4.08821e-05 -1.25439e-05 0.000112314 -0.000131283 4.19118e-05 
3.18066e-06 8.2018e-06 2.61387e-05 0.0011408 7.40936e-05 1.50201e-11 -0.000102671 -2.85875e-05 -2.05015e-05 
-0.000105192 -7.98933e-05 6.28378e-05 -0.000114306 -0.000244585 -9.39608e-12 -0.00274421 0.00214083 -0.000347024 
-9.88457e-05 -6.25572e-05 -2.37915e-05 -2.4816e-05 -5.49724e-05 2.1497e-05 -3.49343e-05 -5.17655e-05 2.60086e-05 
1.00833e-05 3.01263e-06 -1.06919e-05 -0.000326363 7.92077e-06 9.8682e-05 -3.61185e-05 8.71502e-06 1.50597e-05 
0.00474419 0.0326943 -1.35548e-11 6.02308e-05 3.03681e-05 1.78841e-05 3.62518e-05 4.66821e-05 6.0477e-05 
-0.000115325 -0.000115984 0.000132203 2.6446e-05 0.109718 -0.0142953 -0.000140375 1.29989e-05 9.48307e-05 
-0.000120626 -5.3069e-05 -7.00628e-06 -1.23853e-05 4.87886e-05 -2.78147e-05 0.000270304 -0.000950482 0.000329098 
0.000154225 -1.89962e-05 6.76699e-05 -0.000109294 -1.60468e-05 -9.13534e-06 -1.84679e-06 -3.80858e-05 -0.000105548 
3.64945e-05 0.00012079 -4.89253e-05 -2.28515e-05 3.42133e-05 3.04167e-05 0.000287801 -0.00216154 -0.00043567 
0.0011425 -0.00167087 -0.000381317 0.000760469 -0.00152006 5.4809e-05 3.04426e-05 0.000541893 2.37724e-05 
0.00165386 0.00113034 -0.00021337 0.00624852 0.00654267 -1.89193e-06 0.00042893 0.000564307 -0.000169248 
0.105745 -0.0350233 0.000183321 -3.14073e-05 2.9562e-05 3.03896e-05 -7.93458e-05 0.000107821 0.000204534 
0.00132874 -0.000110486 0.000174309 -5.43964e-05 0.000172587 4.41351e-05 -0.0201906 0.0172757 5.53839e-12 
0.000458194 -0.000258597 1.39406e-05 -0.000166616 0.000408815 -3.94632e-05 7.8207e-05 0.0168404 3.90143e-05 
0.0533125 -0.0173747 -0.0974177 0.082253 -0.0612752 0.000443618 -0.000652798 0.0959587 0.0711074 
0.0032253 1.04539e-05 -6.54788e-05 -0.00885234 -0.0242061 5.29319e-05 -3.90287e-06 0.00346855 -0.00134496 
-0.000652034 0.0099045 1.43885e-11 -8.85121e-07 0.0661791 -0.0196281 0.0509683 0.0288015 0.0270668 
0.00170232 -0.000616367 0.000358211 -0.000152262 1.41603e-05 3.6295e-05 0.000123904 -0.00107508 8.23727e-05 
-0.0003968 -0.000101338 -0.000101175 0.000996347 -0.000885844 -6.81258e-05 -0.0229448 0.000148972 -0.000187017 
-0.00768283 -0.00544287 -0.000198501 0.00269164 -0.000249476 -0.000287014 -0.00565815 0.00219088 -0.00021815 
0.00251785 0.000826926 -0.000142892 0.00283681 -0.00109129 1.90842e-06 1.58946e-05 -7.06333e-05 4.58075e-05 
-3.98719e-05 -6.18277e-05 -1.66644e-05 0.00360625 -0.000212942 0.000169511 8.08601e-05 6.22066e-05 0.000168883 
0.00449923 0.0332424 -0.000211044 0.0030695 0.00312676 0.000657133 -0.000243688 0.0206466 -0.0129667 
0.00336294 -0.000972001 0.000229559 0.00242893 -0.000443182 -0.00127814 -1.75961e-05 0.0203934 -0.0168317 
0.00135645 0.010365 -0.0152558 0.0030561 -0.00173324 0.000981719 -0.0271437 0.00475454 -7.79985e-05 
-0.0135711 0.0107221 0.00601867 -0.0150627 -0.00223372 -0.00781483 -0.00681786 0.00405625 -0.00666525 
-0.0200811 0.0211069 1.72726e-11 -0.0100521 0.00212506 0.000354661 -0.0159102 0.0217032 -3.45796e-05 
0.000363341 -0.124285 1.63097e-11 4.02427e-05 0.0268991 -0.0214619 -0.0225158 0.0104556 -0.0032953 
0.0106762 -0.0140152 -0.0137612 -0.00941087 0.0267429 -1.20156e-10 0.0827066 -0.0383604 -0.0151133 
-0.00523368 0.00279198 0.000166754 0.00387874 -0.00261637 -5.2687e-05 0.0355313 0.00392034 0.000277545 
-0.0573355 0.00587515 0.00122326 0.0592618 0.017673 -4.79129e-05 -0.0247957 0.0377415 0.000189861 
0.0398731 0.0222949 -0.000353384 -0.0202391 -0.0159564 -2.76211e-05 0.00480404 0.000296132 0.000410784 
-0.000235959 0.0300338 1.18553e-12 -0.00692027 0.0142151 -0.000296463 -0.0161418 0.0132309 -0.00435644 
-0.00899075 0.0134873 7.21982e-05 -0.00955729 0.0100645 5.11239e-05 9.59213e-05 0.00832381 0.00510238 
0.00239704 -0.000335279 -0.000267662 0.029801 0.00649004 -0.0215104 -0.00626882 0.00633955 -0.00781799 
-0.00132966 0.0234292 8.94195e-05 -0.00145937 0.0040914 -0.00529674 -2.75141e-05 0.0102388 0.00829098 
0.0669504 -0.0310625 -0.0529137 -0.0181824 -0.00650301 -2.93223e-05 -0.00079998 0.00130142 0.000248661 
-0.00104454 0.0421917 -0.00409084 -0.00571024 -0.00411191 -7.38056e-06 4.95049e-05 -0.00871754 -0.00751684 
-0.000241823 0.0280514 -1.59272e-06 0.0102747 -0.0209702 0.000101513 0.0128091 0.0130562 0.000170318 
-0.0245085 0.0220382 1.265e-11 6.66712e-05 0.0450887 3.02555e-05 0.00331588 -0.00397505 -6.57945e-05 
-0.00266755 -0.00115571 0.001033 4.70407e-05 0.0452076 7.98635e-06 -0.0095942 0.0371925 -7.76211e-06 
0.00112305 0.00086549 0.00024968 -0.00664055 0.00579807 0.000172738 -0.000606586 0.00706157 3.52684e-06 
-0.0286299 -0.0297061 -0.00723139 -0.00423494 -0.0242151 5.75064e-12 -2.4952e-05 0.0448822 -0.000155772 
0.0159578 -0.0170743 0.0102421 -0.0138432 0.00776376 0.00222027 -0.00259475 -0.00632384 -0.000117632 
-0.00118684 0.00189235 -0.000331078 -0.00274037 0.00743774 -2.25648e-05 -0.013378 0.00614126 -0.00215294 
0.000112518 0.0310064 0.00584532 -0.00112775 0.0023188 4.51246e-05 0.00711627 -0.0225116 -0.00875715 
0.0110261 -0.018078 0.0144276 0.0926548 0.0289063 0.0246395 -0.00374943 0.00586052 0.00442981 
0.00324255 0.00265203 3.50171e-05 0.00564923 0.00260432 0.000421486 -0.211529 -0.279106 -0.297278 
0.0785793 -0.0147958 6.24955e-12 0.000349819 -0.0172599 4.67427e-05 0.00344838 0.0103185 -0.000108206 
0.00538966 0.0426025 -0.0219708 -0.0161157 0.0054661 0.0157813 0.0184603 0.0038085 -0.010511 
0.0227457 0.0556999 -0.000114651 0.186024 -0.116367 -2.47719e-11 0.00382442 0.00456123 0.000278395 
-0.000352052 -0.014517 3.70118e-12 0.00382457 0.0158104 0.000356378 -0.013876 -0.000528096 0.0012368 
-0.0894998 -0.0641014 -0.0317228 -0.000280674 -0.000603832 0.000637314 0.00345989 0.00310839 -0.000119858 
-0.0111317 -0.000788169 -0.000192405 -0.00037675 -0.0147286 6.22669e-12 0.00607004 0.00347534 -1.96513e-05 
-0.0205987 0.0342074 0.00236727 -0.0423185 -0.00893586 -1.66238e-11 -0.0207283 0.0209002 -0.00905706 
0.000303447 -0.001344 3.14136e-05 -0.0613817 -0.14939 0.0685817 -5.58022e-05 0.00127311 0.00020868 
-0.00483472 0.0420259 0.000842932 -0.0215949 -0.00386556 -0.00921615 0.0452522 -0.0574476 0.0110199 
0.0571399 0.186971 -0.0342579 0.000387179 -0.00291456 0.00225665 -5.98686e-05 0.00300155 0.00711872 
0.000102011 0.00346066 0.00575494 0.000622807 0.00053925 -3.94375e-05 -0.00108699 0.000944107 -1.93262e-05 
-0.000963675 -0.000816491 -0.000177113 0.0110825 -0.00950241 6.13384e-05 0.00458955 0.00191505 -1.99152e-05 
0.0181965 -1.37519e-05 1.69578e-05 -1.88989e-05 -0.0168132 -9.21649e-05 -0.00101316 -0.0175059 4.71727e-06 
0.00626215 0.00276133 0.00017856 0.0155144 -0.0129914 -0.000257171 0.0201469 0.0107617 8.61599e-05 
0.00813228 -0.00948608 -9.26121e-05 -4.71964e-06 -0.00560071 -0.0210073 0.0108774 -0.0105546 -0.000678951 
0.0106906 -0.00415585 -4.68273e-05 0.0227366 -0.0142679 0.00583258 0.033351 0.0193936 0.00803594 
-0.00193735 -0.00343857 -0.00786408 0.00694829 0.0103307 0.00982799 0.0104172 -0.0208753 0.000210483 
-1.87954e-05 0.00680395 -0.00488972 -0.000181865 0.0036744 0.00271944 0.00467608 0.00189717 3.56754e-06 
-0.00265516 -0.00845267 0.00376324 1.1117e-05 -0.00930542 -0.00869931 0.0181947 -0.00443112 0.00259555 
-0.00127871 0.00234893 -8.39119e-05 0.0153341 -0.00176828 -0.00452285 0.00468625 0.00270864 -0.000259088 
0.000621166 0.00202374 2.78875e-05 2.51091e-05 0.00068533 -9.5853e-05 0.00153736 -0.00107014 -0.00332138 
0.0187917 -0.00457952 -8.52147e-13 -0.000239128 -0.000551536 5.00901e-05 0.00355878 0.0043538 -3.54972e-05 
-0.00121926 0.00224731 -1.20613e-05 0.000125613 0.00324851 0.000659294 -0.00150991 -5.10109e-06 -0.00968849 
-0.00120294 0.00469628 0.000585478 -0.00320565 -0.00374971 -8.52939e-06 -0.000661634 0.00351206 -9.25243e-05 
-6.7058e-05 0.00263679 -0.000288162 -0.000351552 0.00120039 8.98517e-06 -0.00112456 0.00157762 1.12488e-05 
0.00219985 0.000615787 -1.29224e-05 -0.000410155 0.000985363 -6.58667e-05 0.0692685 -0.0580612 5.60234e-13 
0.00222123 3.18186e-05 4.94399e-05 -0.000376212 0.000610628 0.00067874 -0.000343212 0.0466056 -9.2029e-12 
8.60309e-05 0.00333071 -0.00252603 -0.000182693 0.00388835 -3.3276e-06 0.000526968 0.0039488 -0.00599341 
-0.0231046 0.0016712 -0.000195982 -0.0125445 0.0453309 -1.01072e-11 -0.000116505 7.16151e-05 1.83351e-05 
-0.000498538 0.0031226 1.33612e-11 -0.0029611 0.00713086 -0.000566555 0.000694924 -0.00139931 0.00421629 
0.00025154 -0.00658779 -0.000338812 0.00440317 0.0114132 0.00572466 -0.00130943 0.000597657 -0.00133143 
0.000100176 0.00185166 -0.00241432 -0.000207283 -0.000401956 0.000154674 -2.59681e-05 0.00112542 2.33618e-05 
-0.000109491 0.00101099 2.17032e-05 -0.000106998 -0.000395013 -6.71663e-06 -1.60701e-06 0.000997078 -4.59605e-06 
0.00705835 0.0269248 -1.15296e-11 0.000576216 0.000902392 -3.47403e-05 0.00207959 0.00339245 3.60606e-05 
-0.00109753 0.00200354 1.77923e-05 3.34748e-05 -0.000496975 -3.7729e-06 0.00920078 0.00242995 -4.58832e-06 
0.0338977 0.00983113 -4.40503e-12 0.00131042 -0.000478793 -7.59465e-05 -0.0291646 0.00755532 4.63901e-12 
2.18088e-05 0.000993225 4.16402e-05 0.00457436 0.00217373 9.18471e-06 -9.65923e-05 0.000706154 -8.89203e-06 
0.000939059 -0.00030711 -8.79398e-06 -0.00102298 -0.000740917 0.000798794 0.00288181 0.00796176 -0.00561742 
0.000614842 0.000464915 -0.00036955 -0.0757453 -0.00944882 -1.31592e-11 0.00319 -0.00336774 0.00123953 
0.00338663 0.00119013 0.00232745 0.00489137 -0.0195864 1.4428e-11 0.000974815 0.000518833 3.94893e-05 
0.000979545 -0.00169243 0.000484933 0.000159443 0.000456294 -0.000539413 0.000543938 0.000173143 -4.71855e-05 
0.000296225 0.00812505 -0.00847137 9.86706e-05 0.000304739 -1.85454e-05 -0.000654254 0.000540934 -5.5122e-05 
0.0045503 -6.27483e-05 -0.00285527 -0.000210266 0.000587639 -6.24372e-05 -0.00168342 -0.0010113 7.30363e-06 
0.00102988 0.000240783 9.57348e-05 -0.00214853 -0.000493984 6.72684e-05 -0.000273208 -5.22905e-07 -0.000209866 
-0.000322129 0.0011288 1.37415e-11 -0.000754247 -0.000835108 -0.00015654 -0.00227215 0.000193702 -7.7069e-05 
-3.70045e-05 -0.000171106 7.19768e-05 -1.71359e-05 -0.000468959 0.000114397 0.00391566 -0.00239383 -2.44973e-06 
-0.00236034 -0.00246611 0.00250248 0.00048558 0.000246727 1.53389e-05 0.000912406 0.00411096 0.000129083 
0.000290189 0.00465416 1.50416e-06 -0.000709804 0.00337958 0.00143638 0.0131022 -0.00400127 5.45868e-05 
0.0103856 0.00768399 -0.0101306 0.00060883 -0.00659819 -0.00737602 -0.000655699 -0.00524064 -0.00270332 
0.0163037 -4.2697e-05 -0.000702294 0.0506338 0.180337 -0.0376908 0.0100638 0.00852973 -0.0197286 
0.118996 0.00486797 -0.0247431 0.0149065 0.00589496 -0.00569775 0.00964304 -0.00183483 -9.00466e-05 
0.0176123 -0.00598135 -0.00637615 -0.00113827 -0.00796059 2.83046e-05 0.0189441 0.00196845 4.3432e-05 
-0.00270124 -0.0035536 0.000918343 -0.000103387 -0.00301119 0.000112284 -0.000740121 -0.0030296 0.000310503 
0.00886685 -0.00213054 3.10571e-05 -0.000111197 -0.00300327 -0.000130356 0.00585773 -0.00716543 -0.000261379 
0.00622411 5.35755e-05 -2.16477e-06 0.0160534 0.00147024 4.91956e-05 0.0147211 -0.0034788 -3.63887e-05 
0.0148938 -0.00516702 -5.83297e-05 -0.00333327 -0.0158555 -6.51531e-05 -0.000485704 -0.00827792 -3.83137e-05 
0.000484712 -0.00395166 1.1844e-05 0.0203039 -0.0059961 2.82147e-06 0.0103304 -0.00466648 0.000146091 
0.00926136 -0.00326759 -0.00284629 0.0059549 -0.000870162 -5.06184e-05 -3.06878e-05 -0.00107993 -0.00247698 
-0.009627 0.0126143 -0.00446758 -0.00332047 -0.0140222 0.00273818 -0.00684209 -0.00217194 0.0011214 
0.0116767 0.0154599 -1.55516e-11 0.0165521 0.0186259 -1.94065e-05 4.53858e-05 -0.0455261 0.00826953 
0.0204705 0.000145358 -0.00156967 0.0336642 0.0167634 0.00242067 0.0148726 -0.00167117 -2.68382e-05 
0.0327477 0.00231185 -0.0149778 0.00814105 0.0148347 1.57229e-05 0.0462437 -0.0690193 -1.03698e-05 
0.00123944 -0.000365703 -7.22187e-06 0.0470612 -0.0674816 1.37395e-05 0.0231808 0.00591425 0.000102937 
0.0400965 -0.00754262 1.38681e-05 0.0179348 -0.000304356 -0.000121414 0.0681308 -0.00755528 0.00793031 
9.80717e-05 -0.047754 2.08807e-05 -0.000365808 -0.0211368 -6.4206e-13 0.0336787 0.014727 -6.1084e-06 
-0.000724931 0.0078444 -2.05958e-05 0.0332081 0.0140765 -2.19759e-06 -0.00129834 -0.043559 0.0238995 
8.44169e-05 -0.00507553 1.48867e-05 -0.00496838 -0.00568408 -3.48955e-05 0.0160743 -0.0103104 7.69423e-05 
0.00271655 -0.0105928 -0.00130446 -0.00730361 -0.004722 0.00519276 6.22951e-05 -0.00314459 -0.00125672 
0.00379979 -0.00712202 -0.0024923 7.42773e-07 0.00598039 -0.0107347 0.000118095 -0.00300413 0.000407868 
-0.00160014 -0.0018842 -0.00438003 6.78008e-05 -0.00297692 -9.87688e-05 -0.00393356 0.000593727 2.85197e-06 
-4.63965e-05 -0.00388659 0.00079352 0.00246681 -0.00651805 -0.0049288 0.00503348 -0.00346164 -0.00566993 
4.63461e-05 -0.00146234 -0.000447137 -0.000220334 -0.00262546 -2.42906e-05 0.00541629 -0.00695763 -6.61699e-05 
-0.000470152 -0.00385974 0.00136213 -0.00328133 -0.000631064 -9.4959e-05 0.000285761 -0.00189318 2.00134e-05 
0.00494503 -0.00657821 7.15548e-05 -0.0516087 0.0532162 1.54947e-11 -0.000596268 -0.00553402 2.64238e-05 
0.000171172 -0.00255643 -6.58111e-05 -0.00459042 -0.00266754 -9.80218e-06 7.35338e-05 0.000783802 1.13574e-11 