# vtk DataFile Version 4.0
Generated by LIGGGHTS
ASCII
DATASET POLYDATA
POINTS 538 float
0.010174 0.00455267 0.0116574 0.00411794 0.00438137 0.0108755 0.00639147 0.00213941 0.0121393 
0.00310575 0.00662096 0.0116573 0.000677968 0.00742964 0.0106779 0.00687055 0.00651733 0.0121393 
0.00217411 0.00344754 0.0106779 0.00421378 0.000770717 0.0107705 0.000770487 0.00598713 0.0107704 
0.00220531 0.00145878 0.0114587 0.00565797 0.00443417 0.010678 0.00388495 0.00275513 0.0107705 
0.00794409 0.00418467 0.0107704 0.000770464 0.00301997 0.0107704 0.000770468 0.00077048 0.0130199 
0.00118706 0.00450355 0.0107705 0.00261867 0.000994459 0.0138319 0.00087549 0.00312502 0.0124096 
0.00270031 0.00467271 0.0105965 0.0025129 0.0040904 0.0121842 0.0043998 0.00457248 0.0130354 
0.0083078 0.00414487 0.0133208 0.000994434 0.00709906 0.0131891 0.00348012 0.00266239 0.0131747 
0.00985864 0.00145878 0.0114587 0.000770487 0.00518687 0.0120873 0.0102105 0.00751574 0.0125211 
0.00216496 0.00527681 0.0135871 0.00879332 0.000875474 0.0134522 0.0114719 0.000994481 0.0132477 
0.00077047 0.00441798 0.0134227 0.00958257 0.00688816 0.0108754 0.0113953 0.00679368 0.0137747 
0.0120304 0.00570498 0.0127161 0.012047 0.00581746 0.0107704 0.0125903 0.0012839 0.0112839 
0.0152105 0.00617997 0.01113 0.0225092 0.00367253 0.0114587 0.016585 0.0040109 0.0114588 
0.0197372 0.00435172 0.0112839 0.0228699 0.00113005 0.01113 0.0145121 0.000770452 0.0107704 
0.0160622 0.001956 0.0107704 0.0208968 0.000875491 0.0108754 0.0214371 0.0056438 0.010678 
0.0167375 0.000677951 0.010678 0.0186179 0.00165739 0.0116574 0.02287 0.00794776 0.01113 
0.0171729 0.00749157 0.0116359 0.0180948 0.00569297 0.0108754 0.02287 0.00652059 0.0128825 
0.0134736 0.00406453 0.0116574 0.0198796 0.00708518 0.0114588 0.0230055 0.00191684 0.0130988 
0.0231231 0.00586176 0.0108755 0.0230055 0.0045606 0.0136911 0.0212683 0.00543584 0.0123532 
0.0150839 0.00162899 0.0127466 0.02146 0.000875485 0.0125333 0.0129662 0.00804415 0.011883 
0.0200681 0.000994484 0.0137764 0.00903663 0.00902658 0.0112839 0.00456771 0.012155 0.0112839 
0.00787787 0.0141737 0.0121393 0.00637424 0.00887447 0.0106779 0.00421536 0.0150513 0.0116573 
0.0111487 0.0108163 0.0114587 0.00446143 0.00941986 0.0114587 0.00113003 0.0118057 0.01113 
0.00145881 0.00925899 0.0114587 0.00836848 0.0118153 0.010678 0.000770474 0.013637 0.0107704 
0.00194766 0.0158649 0.0108754 0.00970401 0.0123684 0.0107704 0.00113008 0.0147104 0.012297 
0.00689893 0.0106652 0.0112839 0.0102833 0.00931555 0.0130233 0.000677983 0.0129657 0.0124411 
0.00287811 0.0108702 0.0126455 0.00884163 0.0109859 0.0129324 0.0114458 0.0132068 0.0109944 
0.00255223 0.0129607 0.0124534 0.00599954 0.0118267 0.0130256 0.00279012 0.0171509 0.0128109 
0.0106203 0.00803338 0.010678 0.00447026 0.0130489 0.0133774 0.0106648 0.015036 0.0109944 
0.000526711 0.0150422 0.010525 0.000770487 0.0162364 0.0133713 0.0112651 0.014211 0.0125615 
0.0184971 0.0109011 0.0118456 0.0155059 0.00906467 0.0109944 0.0166408 0.00950121 0.0125684 
0.0173186 0.015461 0.0112839 0.0142125 0.0113504 0.0116574 0.0205948 0.010733 0.0109944 
0.0151683 0.0164348 0.0108754 0.0186448 0.00933675 0.01113 0.0218584 0.012784 0.0114587 
0.0189843 0.011054 0.0106779 0.0211531 0.00895243 0.0108754 0.0169318 0.0110374 0.01113 
0.0228682 0.0102982 0.01113 0.0204133 0.0157674 0.0118831 0.0159061 0.0146457 0.0126993 
0.018585 0.0130024 0.0114587 0.0160456 0.0133831 0.01113 0.0230055 0.0140068 0.0132496 
0.0125095 0.0104083 0.0134588 0.0143031 0.015762 0.0136736 0.0200998 0.0113416 0.0133188 
0.0231245 0.0146563 0.0108754 0.01505 0.0131952 0.0131776 0.0232295 0.0154766 0.0122985 
0.0148926 0.00948638 0.0132318 0.0135977 0.0146078 0.0116574 0.0230057 0.0166446 0.0109944 
0.000875429 0.0175109 0.012335 0.00630848 0.0166329 0.0109944 0.0100507 0.0167802 0.0133362 
0.00077048 0.0170106 0.0107704 0.00630464 0.0238783 0.0114587 0.00313717 0.0197771 0.0109944 
0.00825681 0.0244127 0.0106779 0.00128397 0.021498 0.0112839 0.00698627 0.0212761 0.0108754 
0.00407226 0.0222943 0.0112839 0.00113007 0.0190937 0.01113 0.0023945 0.0175579 0.0108754 
0.0052996 0.0202214 0.01113 0.00996249 0.0200904 0.0107704 0.0104286 0.0185154 0.0108754 
0.00275674 0.0230019 0.0133726 0.00898095 0.0164926 0.0107704 0.000770476 0.0234198 0.0107704 
0.00609975 0.0216559 0.0124774 0.00297742 0.0208481 0.0126627 0.00788529 0.0188701 0.011883 
0.00447708 0.0179571 0.0112839 0.009293 0.0224045 0.011883 0.0046708 0.0194826 0.0133405 
0.000994452 0.0240668 0.0123971 0.00572979 0.0170207 0.0126161 0.00448083 0.021615 0.0131793 
0.0047132 0.023373 0.0127922 0.0105116 0.0246131 0.0125719 0.00804991 0.0246282 0.0126255 
0.0110552 0.0244987 0.0109944 0.0029212 0.0245897 0.0112839 0.0120484 0.0233978 0.0125904 
0.0122048 0.0228509 0.010678 0.000875383 0.025147 0.0108754 0.011862 0.0169529 0.0112839 
0.0158585 0.0168446 0.0128801 0.0121845 0.0185761 0.0125012 0.0133074 0.0168063 0.0128815 
0.0170719 0.0179814 0.01113 0.0139541 0.0221921 0.0109944 0.014999 0.0240384 0.0109944 
0.0231214 0.0227083 0.0108755 0.0194377 0.0187202 0.0112839 0.0120345 0.0205409 0.0114587 
0.015299 0.0226906 0.012609 0.0181919 0.0218491 0.0107703 0.0169714 0.0232608 0.01113 
0.0185655 0.0170683 0.0106779 0.0233336 0.0212768 0.0105965 0.0223276 0.0191211 0.0116574 
0.0141512 0.0184533 0.0114587 0.0154911 0.0212885 0.0107705 0.0159929 0.019504 0.0107703 
0.0205766 0.0221901 0.011883 0.0145196 0.0207482 0.0122438 0.0231245 0.0170275 0.0128395 
0.0140208 0.0204381 0.0106779 0.0173165 0.0204665 0.0128591 0.013298 0.0219661 0.0126173 
0.0176553 0.0257673 0.0127815 0.018145 0.0233458 0.012899 0.0231246 0.021359 0.0125361 
0.0230055 0.0231342 0.0131116 0.00936086 0.026428 0.0116574 0.00946002 0.0286859 0.0107704 
0.00747119 0.0286516 0.0112839 0.00867572 0.0322043 0.01113 0.0013201 0.0320528 0.0112839 
0.00342122 0.0271084 0.0112839 0.000994463 0.0270094 0.0109944 0.00535087 0.0286304 0.0108754 
0.00611584 0.0312353 0.0116574 0.00593675 0.0265925 0.0112839 0.010756 0.0313207 0.01113 
0.00889084 0.0302267 0.0108754 0.00165738 0.0292775 0.012198 0.00461431 0.025312 0.0130743 
0.00394736 0.0298603 0.0109944 0.0049558 0.0282003 0.012794 0.00168138 0.0260446 0.0127582 
0.0033105 0.0311957 0.012138 0.00714527 0.0261461 0.0133254 0.00745252 0.0255043 0.0106779 
0.00077047 0.0274932 0.0135852 0.00214019 0.0336049 0.011721 0.00349604 0.0326636 0.0109944 
0.00932664 0.0292961 0.0122932 0.000596482 0.0311782 0.0127831 0.0124536 0.0313466 0.0128462 
0.0117188 0.0287584 0.0116574 0.00764766 0.0334046 0.0121858 0.00704839 0.0332941 0.0107704 
0.0116198 0.0265004 0.0107704 0.000875472 0.0335963 0.0127272 0.0190614 0.0264184 0.0126713 
0.0121889 0.0305651 0.010525 0.0223426 0.0252504 0.0116573 0.0130411 0.0243881 0.0109944 
0.0165538 0.025482 0.01113 0.0127407 0.0261161 0.0124487 0.0201765 0.0260582 0.011989 
0.0151166 0.0250987 0.0128317 0.0188614 0.0247844 0.0112839 0.0144877 0.0259605 0.0109944 
0.0157932 0.0274611 0.0109944 0.0180513 0.0273693 0.0112839 0.0144358 0.0290898 0.01113 
0.013121 0.0324939 0.0109944 0.0225412 0.0314052 0.0114587 0.0200186 0.0263666 0.010678 
0.0153163 0.031502 0.0114587 0.0196265 0.031537 0.0114587 0.0234011 0.0271267 0.0105965 
0.0165169 0.0291831 0.0120066 0.0135571 0.0274434 0.0107704 0.0184142 0.0292787 0.0119499 
0.0172861 0.0317944 0.010678 0.0232235 0.0283874 0.010678 0.0209494 0.0284975 0.011883 
0.0135423 0.0306003 0.010678 0.0177239 0.030317 0.0108754 0.0174748 0.0311023 0.0125541 
0.0143914 0.0274052 0.0120654 0.0198162 0.0332523 0.0130307 0.0198132 0.0336491 0.0107704 
0.023322 0.0331027 0.0124955 0.0232296 0.0273219 0.0125614 0.000994458 0.0342892 0.0109944 
0.000875471 0.0361515 0.0108754 0.00274457 0.0342448 0.0107704 0.000875438 0.0379024 0.0108754 
0.006064 0.0355914 0.010678 0.0114712 0.0406978 0.0121393 0.00787156 0.034969 0.01113 
0.00691486 0.0375335 0.0116573 0.00388052 0.0361987 0.0116574 0.00683012 0.0408474 0.0116573 
0.0095229 0.0366528 0.0109944 0.0039715 0.0393073 0.0114587 0.00929104 0.0386338 0.0109944 
0.00128397 0.0399831 0.0112839 0.00526256 0.0338361 0.01113 0.00128398 0.0357052 0.0129483 
0.010509 0.0342368 0.0116574 0.00488953 0.0380213 0.0135095 0.00482982 0.0405307 0.0135727 
0.00198652 0.0380443 0.012539 0.00878184 0.0400902 0.0105965 0.0086732 0.0392365 0.0129909 
0.00623294 0.0351719 0.0122685 0.00911892 0.0413265 0.010678 0.0129157 0.0343487 0.0108754 
0.00261192 0.0406949 0.01317 0.0174377 0.0340492 0.011883 0.0147092 0.0338333 0.0109944 
0.0212224 0.0334433 0.0118129 0.0138968 0.0391622 0.0130605 0.0181122 0.0367018 0.0109944 
0.0230056 0.033769 0.0109944 0.0128141 0.0369147 0.011883 0.0157026 0.0376875 0.0109944 
0.0139929 0.0411829 0.0107704 0.0196607 0.0389619 0.011883 0.0203079 0.0357109 0.0114588 
0.0232284 0.0402161 0.0107705 0.0152873 0.0357424 0.0109944 0.0173506 0.0382781 0.0107704 
0.022716 0.038289 0.0112839 0.02287 0.0358848 0.01113 0.0178537 0.0407867 0.0108754 
0.0223679 0.0402285 0.0129305 0.0144022 0.0393622 0.01113 0.0162684 0.0393751 0.0107704 
0.0158876 0.041202 0.01113 0.0170625 0.0398557 0.0121297 0.0155358 0.0367062 0.0122356 
0.0143721 0.040906 0.0122381 0.00583181 0.0490112 0.0120263 0.00336562 0.049932 0.0133698 
0.00763304 0.0427233 0.0131582 0.00395851 0.046184 0.0122377 0.00874592 0.0484227 0.0124948 
0.00644562 0.0476119 0.0127062 0.00907081 0.0469749 0.0119577 0.00470701 0.0435273 0.0128192 
0.00675231 0.0435634 0.0120501 0.00270579 0.0461852 0.0109944 0.010791 0.0479831 0.0114587 
0.00139898 0.0454803 0.0123178 0.000875431 0.046549 0.0108754 0.001325 0.0480578 0.0123533 
0.00373088 0.0444807 0.0109944 0.000770432 0.0449098 0.0107704 0.00708627 0.0494093 0.0109944 
0.00173454 0.0428657 0.0116574 0.0113088 0.0447089 0.011883 0.00851923 0.0455636 0.01113 
0.0059513 0.045558 0.0114587 0.00797735 0.0476134 0.0109944 0.00390891 0.0482722 0.0114587 
0.00612174 0.0478118 0.0108754 0.00861445 0.0431559 0.0112839 0.00562508 0.0433214 0.0108754 
[...]
POINT_DATA 538
FIELD FieldData 7
id 1 538 int
1 2 3 4 5 6 7 8 9 
10 11 12 13 14 15 16 17 18 
19 20 21 22 24 25 26 29 31 
33 34 35 38 39 45 55 56 57 
58 59 60 61 62 63 64 65 66 
67 68 69 70 71 72 73 76 77 
80 81 82 85 90 95 96 106 107 
108 109 110 111 112 113 114 115 116 
117 118 119 120 121 122 124 126 128 
129 131 132 133 134 141 144 155 162 
163 164 165 166 167 168 169 170 171 
172 173 174 175 176 177 178 179 181 
184 187 190 191 192 194 197 198 200 
219 220 222 223 224 225 226 227 228 
229 230 231 232 233 234 235 236 237 
238 239 240 241 242 244 245 248 250 
251 254 262 264 265 270 273 275 276 
279 283 284 285 286 287 288 289 290 
291 292 293 294 295 296 297 298 299 
300 301 302 303 305 306 308 309 310 
317 330 331 332 333 334 335 336 337 
338 339 340 341 342 343 344 346 347 
348 349 351 353 357 359 362 366 368 
375 376 379 380 382 385 386 387 388 
389 390 391 392 393 394 395 396 397 
398 399 400 401 402 403 404 405 406 
408 409 410 411 413 415 416 417 418 
419 421 435 436 437 439 440 441 442 
443 444 445 446 447 448 449 450 451 
453 455 456 457 458 459 460 466 478 
479 497 498 499 500 501 502 503 504 
505 506 507 508 509 510 511 513 514 
515 516 517 522 523 524 535 486 487 
488 489 490 491 492 493 494 495 496 
512 518 519 520 521 525 526 527 528 
529 530 531 532 533 534 536 537 538 
438 452 454 461 462 463 464 465 467 
468 469 470 471 472 473 474 475 476 
477 480 481 482 483 484 485 355 356 
358 360 361 363 364 365 367 369 370 
371 372 373 374 377 378 381 383 384 
407 412 414 420 422 423 424 425 426 
427 428 429 430 431 432 433 434 266 
267 268 269 271 272 274 277 278 280 
281 282 304 307 311 312 313 314 315 
316 318 319 320 321 322 323 324 325 
326 327 328 329 345 350 352 354 207 
208 209 210 211 212 213 214 215 216 
217 218 221 243 246 247 249 252 253 
255 256 257 258 259 260 261 263 142 
143 145 146 147 148 149 150 151 152 
153 154 156 157 158 159 160 161 180 
182 183 185 186 188 189 193 195 196 
199 201 202 203 204 205 206 86 87 
88 89 91 92 93 94 97 98 99 
100 101 102 103 104 105 123 125 127 
130 135 136 137 138 139 140 23 27 
28 30 32 36 37 40 41 42 43 
44 46 47 48 49 50 51 52 53 
54 74 75 78 79 83 84 
type 1 538 int
1 1 1 1 1 1 1 1 1 
1 1 1 1 1 1 1 1 1 
1 1 1 1 1 1 1 1 1 
1 1 1 1 1 1 1 1 1 
1 1 1 1 1 1 1 1 1 
1 1 1 1 1 1 1 1 1 
1 1 1 1 1 1 1 1 1 
1 1 1 1 1 1 1 1 1 
1 1 1 1 1 1 1 1 1 
1 1 1 1 1 1 1 1 1 
1 1 1 1 1 1 1 1 1 
1 1 1 1 1 1 1 1 1 
1 1 1 1 1 1 1 1 1 
1 1 1 1 1 1 1 1 1 
1 1 1 1 1 1 1 1 1 
1 1 1 1 1 1 1 1 1 
1 1 1 1 1 1 1 1 1 
1 1 1 1 1 1 1 1 1 
1 1 1 1 1 1 1 1 1 
1 1 1 1 1 1 1 1 1 
1 1 1 1 1 1 1 1 1 
1 1 1 1 1 1 1 1 1 
1 1 1 1 1 1 1 1 1 
1 1 1 1 1 1 1 1 1 
1 1 1 1 1 1 1 1 1 
1 1 1 1 1 1 1 1 1 
1 1 1 1 1 1 1 1 1 
1 1 1 1 1 1 1 1 1 
1 1 1 1 1 1 1 1 1 
1 1 1 1 1 1 1 1 1 
1 1 1 1 1 1 1 1 1 
1 1 1 1 1 1 1 1 1 
1 1 1 1 1 1 1 1 1 
1 1 1 1 1 1 1 1 1 
1 1 1 1 1 1 1 1 1 
1 1 1 1 1 1 1 1 1 
1 1 1 1 1 1 1 1 1 
1 1 1 1 1 1 1 1 1 
1 1 1 1 1 1 1 1 1 
1 1 1 1 1 1 1 1 1 
1 1 1 1 1 1 1 1 1 
1 1 1 1 1 1 1 1 1 
1 1 1 1 1 1 1 1 1 
1 1 1 1 1 1 1 1 1 
1 1 1 1 1 1 1 1 1 
1 1 1 1 1 1 1 1 1 
1 1 1 1 1 1 1 1 1 
1 1 1 1 1 1 1 1 1 
1 1 1 1 1 1 1 1 1 
1 1 1 1 1 1 1 1 1 
1 1 1 1 1 1 1 1 1 
1 1 1 1 1 1 1 1 1 
1 1 1 1 1 1 1 1 1 
1 1 1 1 1 1 1 1 1 
1 1 1 1 1 1 1 1 1 
1 1 1 1 1 1 1 1 1 
1 1 1 1 1 1 1 1 1 
1 1 1 1 1 1 1 1 1 
1 1 1 1 1 1 1 1 1 
1 1 1 1 1 1 1 
i 3 538 int
0 0 0 0 0 0 0 0 0 
0 0 0 0 0 0 0 0 0 
0 0 0 0 0 0 0 0 0 
0 0 0 0 0 0 0 0 0 
0 0 0 0 0 0 0 0 0 
0 0 0 0 0 0 0 0 0 
0 0 0 0 0 0 0 0 0 
0 0 0 0 0 0 0 0 0 
0 0 0 0 0 0 0 0 0 
0 0 0 0 0 0 0 0 0 
0 0 0 0 0 0 0 0 0 
0 0 0 0 0 0 0 0 0 
0 0 0 0 0 0 0 0 0 
0 0 0 0 0 0 0 0 0 
0 0 0 0 0 0 0 0 0 
0 0 0 0 0 0 0 0 0 
0 0 0 0 0 0 0 0 0 
0 0 0 0 0 0 0 0 0 
0 0 0 0 0 0 0 0 0 
0 0 0 0 0 0 0 0 0 
0 0 0 0 0 0 0 0 0 
0 0 0 0 0 0 0 0 0 
0 0 0 0 0 0 0 0 0 
0 0 0 0 0 0 0 0 0 
0 0 0 0 0 0 0 0 0 
0 0 0 0 0 0 0 0 0 
0 0 0 0 0 0 0 0 0 
0 0 0 0 0 0 0 0 0 
0 0 0 0 0 0 0 0 0 
0 0 0 0 0 0 0 0 0 
0 0 0 0 0 0 0 0 0 
0 0 0 0 0 0 0 0 0 
0 0 0 0 0 0 0 0 0 
0 0 0 0 0 0 0 0 0 
0 0 0 0 0 0 0 0 0 
0 0 0 0 0 0 0 0 0 
0 0 0 0 0 0 0 0 0 
0 0 0 0 0 0 0 0 0 
0 0 0 0 0 0 0 0 0 
0 0 0 0 0 0 0 0 0 
0 0 0 0 0 0 0 0 0 
0 0 0 0 0 0 0 0 0 
0 0 0 0 0 0 0 0 0 
0 0 0 0 0 0 0 0 0 
0 0 0 0 0 0 0 0 0 
0 0 0 0 0 0 0 0 0 
0 0 0 0 0 0 0 0 0 
0 0 0 0 0 0 0 0 0 
0 0 0 0 0 0 0 0 0 
0 0 0 0 0 0 0 0 0 
0 0 0 0 0 0 0 0 0 
0 0 0 0 0 0 0 0 0 
0 0 0 0 0 0 0 0 0 
0 0 0 0 0 0 0 0 0 
0 0 0 0 0 0 0 0 0 
0 0 0 0 0 0 0 0 0 
0 0 0 0 0 0 0 0 0 
0 0 0 0 0 0 0 0 0 
0 0 0 0 0 0 0 0 0 
0 0 0 0 0 0 0 0 0 
0 0 0 0 0 0 0 0 0 
0 0 0 0 0 0 0 0 0 
0 0 0 0 0 0 0 0 0 
0 0 0 0 0 0 0 0 0 
0 0 0 0 0 0 0 0 0 
0 0 0 0 0 0 0 0 0 
0 0 0 0 0 0 0 0 0 
0 0 0 0 0 0 0 0 0 
0 0 0 0 0 0 0 0 0 
0 0 0 0 0 0 0 0 0 
0 0 0 0 0 0 0 0 0 
0 0 0 0 0 0 0 0 0 
0 0 0 0 0 0 0 0 0 
0 0 0 0 0 0 0 0 0 
0 0 0 0 0 0 0 0 0 
0 0 0 0 0 0 0 0 0 
0 0 0 0 0 0 0 0 0 
0 0 0 0 0 0 0 0 0 
0 0 0 0 0 0 0 0 0 
0 0 0 0 0 0 0 0 0 
0 0 0 0 0 0 0 0 0 
0 0 0 0 0 0 0 0 0 
0 0 0 0 0 0 0 0 0 
0 0 0 0 0 0 0 0 0 
0 0 0 0 0 0 0 0 0 
0 0 0 0 0 0 0 0 0 
0 0 0 0 0 0 0 0 0 
0 0 0 0 0 0 0 0 0 
0 0 0 0 0 0 0 0 0 
0 0 0 0 0 0 0 0 0 
0 0 0 0 0 0 0 0 0 
0 0 0 0 0 0 0 0 0 
0 0 0 0 0 0 0 0 0 
0 0 0 0 0 0 0 0 0 
0 0 0 0 0 0 0 0 0 
0 0 0 0 0 0 0 0 0 
0 0 0 0 0 0 0 0 0 
0 0 0 0 0 0 0 0 0 
0 0 0 0 0 0 0 0 0 
0 0 0 0 0 0 0 0 0 
0 0 0 0 0 0 0 0 0 
0 0 0 0 0 0 0 0 0 
0 0 0 0 0 0 0 0 0 
0 0 0 0 0 0 0 0 0 
0 0 0 0 0 0 0 0 0 
0 0 0 0 0 0 0 0 0 
0 0 0 0 0 0 0 0 0 
0 0 0 0 0 0 0 0 0 
0 0 0 0 0 0 0 0 0 
0 0 0 0 0 0 0 0 0 
0 0 0 0 0 0 0 0 0 
0 0 0 0 0 0 0 0 0 
0 0 0 0 0 0 0 0 0 
0 0 0 0 0 0 0 0 0 
0 0 0 0 0 0 0 0 0 
0 0 0 0 0 0 0 0 0 
0 0 0 0 0 0 0 0 0 
0 0 0 0 0 0 0 0 0 
0 0 0 0 0 0 0 0 0 
0 0 0 0 0 0 0 0 0 
0 0 0 0 0 0 0 0 0 
0 0 0 0 0 0 0 0 0 
0 0 0 0 0 0 0 0 0 
0 0 0 0 0 0 0 0 0 
0 0 0 0 0 0 0 0 0 
0 0 0 0 0 0 0 0 0 
0 0 0 0 0 0 0 0 0 
0 0 0 0 0 0 0 0 0 
0 0 0 0 0 0 0 0 0 
0 0 0 0 0 0 0 0 0 
0 0 0 0 0 0 0 0 0 
0 0 0 0 0 0 0 0 0 
0 0 0 0 0 0 0 0 0 
0 0 0 0 0 0 0 0 0 
0 0 0 0 0 0 0 0 0 
0 0 0 0 0 0 0 0 0 
0 0 0 0 0 0 0 0 0 
0 0 0 0 0 0 0 0 0 
0 0 0 0 0 0 0 0 0 
0 0 0 0 0 0 0 0 0 
0 0 0 0 0 0 0 0 0 
0 0 0 0 0 0 0 0 0 
0 0 0 0 0 0 0 0 0 
0 0 0 0 0 0 0 0 0 
0 0 0 0 0 0 0 0 0 
0 0 0 0 0 0 0 0 0 
0 0 0 0 0 0 0 0 0 
0 0 0 0 0 0 0 0 0 
0 0 0 0 0 0 0 0 0 
0 0 0 0 0 0 0 0 0 
0 0 0 0 0 0 0 0 0 
0 0 0 0 0 0 0 0 0 
0 0 0 0 0 0 0 0 0 
0 0 0 0 0 0 0 0 0 
0 0 0 0 0 0 0 0 0 
0 0 0 0 0 0 0 0 0 
0 0 0 0 0 0 0 0 0 
0 0 0 0 0 0 0 0 0 
0 0 0 0 0 0 0 0 0 
0 0 0 0 0 0 0 0 0 
0 0 0 0 0 0 0 0 0 
0 0 0 0 0 0 0 0 0 
0 0 0 0 0 0 0 0 0 
0 0 0 0 0 0 0 0 0 
0 0 0 0 0 0 0 0 0 
0 0 0 0 0 0 0 0 0 
0 0 0 0 0 0 0 0 0 
0 0 0 0 0 0 0 0 0 
0 0 0 0 0 0 0 0 0 
0 0 0 0 0 0 0 0 0 
0 0 0 0 0 0 0 0 0 
0 0 0 0 0 0 0 0 0 
0 0 0 0 0 0 0 0 0 
0 0 0 0 0 0 0 0 0 
0 0 0 0 0 0 0 0 0 
0 0 0 0 0 0 0 0 0 
0 0 0 0 0 0 0 0 0 
0 0 0 0 0 0 0 0 0 
0 0 0 0 0 0 0 0 0 
0 0 0 
v 3 538 double
-0.000629697 1.19895e-05 -2.01438e-06 -0.000417378 0.00139973 1.23218e-11 -0.00035933 1.02276e-05 6.69727e-06 
-0.000679535 -0.000413808 4.16634e-06 -3.65346e-06 1.28492e-06 -5.85664e-07 -0.000665285 0.000350424 -5.14616e-06 
2.39168e-05 -5.91314e-06 6.93535e-06 0.0011408 7.40936e-05 1.50201e-11 1.42248e-07 -2.27209e-07 8.54008e-07 
1.58331e-05 -6.42364e-06 -5.6471e-06 -0.000239463 0.000456503 -2.99559e-12 0.000137923 0.00121638 1.08648e-11 
-0.000695767 0.000299016 1.32123e-05 9.6276e-06 -6.2583e-08 2.84974e-06 7.32646e-06 3.50053e-07 3.74055e-06 
8.03983e-06 1.07386e-07 6.45846e-06 -0.000762725 2.98089e-05 0.000125617 1.19297e-05 2.79018e-06 1.62246e-06 
-0.000223743 -0.000730278 1.65131e-11 -0.000746371 -0.000320575 0.000332882 -0.000317084 -4.92131e-05 0.000195654 
-0.000697501 0.000338842 -3.26062e-06 7.27294e-06 0.198049 -0.060979 -0.000304443 -8.32212e-05 0.000264686 
-0.000395287 -3.86581e-06 -2.90978e-06 -4.49847e-07 3.06326e-06 3.41822e-06 0.000386273 -0.00417474 0.00119544 
8.21153e-05 -0.000251483 0.00048273 -0.000371319 -2.32102e-06 4.56105e-06 -0.000414485 4.20683e-06 7.05188e-06 
-5.1625e-06 -3.18938e-06 3.75606e-06 -0.000649056 1.24966e-06 -3.40635e-06 0.00188773 -0.00115886 0.00155528 
-9.94838e-05 -0.000800968 -7.15387e-05 -3.21426e-05 -0.000866716 -4.77254e-06 -0.000421351 -5.47887e-05 4.95108e-07 
-0.000222276 -2.84744e-05 -1.90061e-05 0.0189265 0.00272509 -7.23331e-06 0.000670707 0.000553456 1.32745e-05 
0.0995969 -0.0414784 -2.34596e-05 1.59571e-06 8.0092e-06 7.67476e-06 -0.000359964 -6.53756e-06 5.74158e-05 
0.00109745 0.000527469 -7.19469e-05 -7.05111e-07 2.2947e-06 2.51044e-06 -0.0201906 0.0172757 5.53839e-12 
8.01258e-06 -2.36487e-05 -8.07474e-06 -4.2159e-05 -3.30901e-05 8.59523e-06 6.4638e-05 0.00956978 3.42496e-05 
0.0502687 -0.000264018 -0.195866 0.0776224 -0.0687464 -0.000111686 8.88934e-05 0.0505247 0.0334261 
0.0004635 -0.000431169 1.98646e-05 0.0570009 -0.0391777 -1.83311e-05 -2.25477e-06 -0.00190015 0.000771077 
-0.000652034 0.0099045 1.43333e-11 -4.23699e-06 0.0333724 -0.00799004 0.0362959 -0.019632 0.0681729 
0.0011802 -0.000130704 -0.000240297 -1.75924e-05 6.5912e-06 -2.46813e-06 -0.00062311 -0.000595304 -6.73609e-05 
-2.16134e-05 -5.33622e-06 6.14585e-08 0.0031579 -0.00295439 1.58437e-05 -0.0231116 -0.00240819 -1.26857e-06 
-0.0062015 -0.00719797 0.000205527 0.00732035 0.0020583 9.84881e-06 -0.00439185 -0.000125983 -2.00739e-05 
0.00181215 0.00107015 2.36201e-05 0.00571577 -0.00352165 -1.68754e-07 -8.12459e-06 -4.33197e-07 -2.41485e-06 
-8.30413e-06 -1.7035e-06 2.22186e-06 0.00801302 -0.00401804 -3.07055e-05 -3.20524e-06 -2.04491e-05 -2.52683e-05 
0.0151757 0.0545191 3.74805e-05 0.00474901 0.00388417 5.44365e-05 9.253e-05 0.0347683 -0.0245879 
0.00207191 0.00360904 5.89005e-06 0.00615451 -0.00353122 -0.00200541 2.20371e-06 0.0343088 -0.0303485 
0.00368668 0.0191257 -0.0303724 0.00228224 -0.00420272 0.00130902 -0.0125747 0.00283216 6.92517e-06 
-0.0234807 0.0185263 0.00903098 -0.0158631 -0.00155405 -0.00580452 -0.0106843 0.00206919 -0.0118631 
-0.0200811 0.0211069 1.72726e-11 -0.0137241 -0.0013241 -2.8465e-05 -0.0096923 0.00403026 1.12645e-05 
0.000363341 -0.124285 1.63097e-11 3.06463e-06 0.0421178 -0.035115 -0.00958208 0.00372361 -0.000204389 
0.00779901 -0.00778211 -0.0140083 -0.00541466 0.0121107 0.000140072 0.0895093 -0.0588104 -0.0481382 
-0.000152102 -0.00713373 -2.7212e-05 0.00228011 -0.00179814 1.93858e-05 0.0349387 0.0145751 3.43176e-05 
-0.0240122 0.00971313 2.98518e-05 0.121728 -0.00344683 5.94177e-06 0.0276866 0.019025 5.34296e-06 
0.0347798 0.0140355 0.00010701 -0.00407947 0.00238308 -5.36352e-05 0.00236995 0.00211989 -0.000208199 
-0.000235959 0.0300338 1.18553e-12 -0.00140919 0.00490262 8.44026e-05 -0.00857325 0.0082501 0.000407054 
-0.00360102 0.00650151 -6.20376e-05 -0.00409099 0.0040169 2.27299e-05 -5.97079e-06 0.0181393 0.0183553 
0.00144202 -0.000266461 2.35936e-05 0.0271321 0.0116821 -0.0213141 0.0132686 0.016372 -0.00502711 
-2.05446e-06 0.0376678 -5.21856e-05 0.000640276 0.00162419 -0.00324605 1.2038e-05 0.0147164 0.0130705 
0.0792775 -0.037259 -0.0751681 -0.00817421 -0.00390505 -1.32708e-05 -2.26671e-05 0.000185379 -1.44501e-05 
5.64718e-06 0.064113 -0.00800936 1.45393e-07 -0.00296302 9.30627e-05 -0.00447535 -0.00744583 -0.00186176 
2.50184e-06 0.0389413 1.41089e-05 0.00119651 0.00546456 1.35787e-05 0.0195767 0.0127697 5.32848e-06 
0.00468194 0.00543774 -2.7772e-05 1.20123e-06 0.0700721 7.38779e-06 0.00106168 -0.00155143 3.28625e-06 
0.00380246 0.00187918 -2.90484e-06 3.04171e-05 0.0701166 -2.26649e-05 -0.0105554 0.0613556 7.74135e-06 
0.000304787 -0.000237772 9.97311e-06 -0.00291806 0.00194066 9.29642e-05 3.9912e-05 0.00278224 -2.06996e-05 
0.00641478 0.0162045 -0.00321369 0.00387657 -0.0115207 -0.00104733 -3.62595e-05 0.0699657 -8.31094e-05 
-0.00226716 0.00427384 -0.00323274 -0.0178765 0.014089 -0.00442137 -0.000700974 -0.00226696 -2.86274e-05 
0.00138786 -0.000658462 -2.17962e-05 -0.00105462 0.00256885 1.51264e-05 -0.0231416 0.00778703 -0.00397504 
-8.98844e-06 0.024817 0.0177551 -0.00615479 -0.0110078 -0.000162804 -0.00250378 -0.0156914 -0.00494162 
0.00268018 0.00191901 0.000442939 -0.0984153 -0.0763566 -0.0287025 0.00158612 0.00399162 0.000417086 
0.00101026 0.000724523 -3.49839e-05 -2.6391e-05 -6.74602e-06 1.65165e-05 -0.00420605 0.0122323 -0.00132586 
0.0785793 -0.0147958 6.24955e-12 -6.44571e-06 3.70919e-05 3.61244e-05 -0.00305153 -9.20945e-05 1.48234e-05 
0.0159066 0.0303055 -0.0178724 -0.0131617 0.000733066 0.00160358 0.00401312 0.00112794 -0.00620607 
0.0266804 0.0463284 5.12729e-06 -0.00122382 0.0159986 1.90934e-05 0.000505951 0.0032415 0.000112994 
-0.000352052 -0.014517 3.70118e-12 -0.00107477 0.00504605 5.07636e-05 -0.00242717 0.00067627 -1.63491e-05 
0.00398858 0.00978743 0.00500287 -2.68779e-05 0.000522339 7.95081e-06 -0.000584371 -0.000146635 0.000307257 
0.0185692 0.0331252 -1.98925e-05 -0.00037675 -0.0147286 6.22669e-12 -0.000225933 0.00016236 -7.48229e-05 
-0.0131154 0.0152108 -2.25962e-05 0.0169541 -0.0359694 1.50201e-11 -0.0143332 0.0172413 -6.35544e-06 
-7.3216e-05 0.000431114 6.14602e-05 -0.00255901 0.0131366 0.000926151 1.84294e-05 0.0119964 0.0206473 
-0.00156807 0.0160188 2.07574e-05 -0.00341684 0.00254718 -0.000178461 -0.0081362 0.00882346 -0.00372186 
0.0546773 0.16334 -0.0640202 0.000909575 0.00376199 -5.7329e-05 -0.000139361 0.00019911 7.97405e-06 
-2.85537e-05 0.000227727 0.000220253 0.00325982 0.00257895 7.54334e-07 -0.000210251 0.00270028 8.11501e-06 
-0.000193374 -0.000495726 -1.50858e-05 -0.000551197 0.00196488 1.24719e-05 1.08969e-05 0.000234481 -6.7423e-06 
-0.000199678 3.52037e-05 4.77992e-06 2.86279e-05 0.000117754 -1.33603e-05 -0.0002102 -0.000403967 -1.88013e-05 
0.00030154 -0.000244778 5.32094e-06 -0.000316913 -0.000398664 1.22833e-05 0.00111445 0.0059011 6.67931e-06 
-0.00275684 0.00175448 -1.98317e-05 -4.35869e-06 0.000197182 -9.26783e-05 -0.00143959 0.00167289 0.000653404 
0.000141865 -4.01801e-05 3.93161e-06 -6.47664e-05 -0.000233251 4.26193e-05 0.0239734 0.0193649 0.00116426 
0.000339479 -0.000103107 0.000170184 0.00260173 0.00510273 -0.000504187 0.00267145 0.00388919 -2.29185e-05 
-1.84772e-06 0.00296866 0.00347268 -0.000201395 0.000257344 0.000311166 0.000166466 -0.000218183 8.80259e-06 
-0.000856657 0.0026739 -2.22554e-05 1.02708e-06 0.000185441 -3.93911e-05 -0.000445319 0.00469374 0.0016165 
-0.000261496 0.0054143 -2.03507e-05 -0.00136698 0.000668493 0.000693255 0.00035822 -0.000198672 2.67947e-05 
0.00323375 0.00525425 3.63561e-05 -9.54572e-06 0.000192601 1.71094e-05 0.0731291 0.143423 0.0466677 
0.0194147 0.00236782 -4.81257e-12 -4.16073e-05 0.000501738 0.000129195 0.00143736 0.0086849 -3.75589e-05 
-0.000560425 -0.000100445 0.000502626 -6.45279e-05 0.00625591 0.00252073 -0.000302335 0.00104448 0.00129661 
-0.00186028 0.00314483 0.00038607 -8.27963e-07 0.00149352 -0.000835843 -0.00229212 0.00243477 8.2084e-05 
0.000461158 0.000377198 7.58196e-05 0.00064714 -0.00116851 0.00014813 0.00039988 0.00050824 7.0168e-05 
0.000308563 0.0015708 -1.15758e-05 8.76427e-05 0.000372884 -3.61744e-05 -0.0093915 0.0143984 -4.62514e-05 
-0.000120501 0.000687998 1.33075e-06 -0.00012055 0.00046277 -3.42099e-05 -0.000343212 0.0466056 -9.2029e-12 
0.00120305 0.00105213 -0.00175129 -0.0026385 0.00214328 -2.22377e-05 0.000705649 0.00376698 -0.0141391 
-0.0401765 0.00302967 6.8566e-06 -0.0125445 0.0453309 -1.01072e-11 0.000200353 0.000936193 0.000109406 
-0.000498538 0.0031226 1.33612e-11 -0.00795408 0.0125607 -1.5602e-05 -0.000206629 0.00846245 0.00302622 
-0.000354901 -0.0295969 -0.00245529 0.00010478 0.000170571 2.05655e-05 0.000151018 0.000226673 -5.15914e-05 
-1.82908e-05 0.000369187 6.03539e-05 3.01091e-05 0.000615882 -8.27269e-05 -1.77757e-05 0.000244853 9.37891e-06 
4.28495e-06 0.000261703 9.70074e-06 -6.96221e-05 -0.00035301 -1.72089e-05 5.43727e-06 0.00027765 6.24894e-07 
-0.00297771 0.000606024 6.60514e-12 -0.00075052 0.00111816 5.90583e-06 2.92948e-05 -1.43261e-06 4.8419e-06 
-0.000129005 -4.79617e-05 4.78653e-06 7.32332e-05 -0.000469505 2.13995e-06 0.00106058 -4.76551e-05 -8.01143e-06 
0.0338977 0.00983113 -4.40503e-12 0.00145159 -0.000539373 1.41329e-05 -0.0290188 0.00693835 -1.18987e-11 
-3.55037e-05 0.000307919 -2.30308e-05 0.000255387 -0.000324963 -1.64129e-05 -2.35261e-05 0.000183616 4.49381e-06 
0.000356462 0.00110658 -9.10325e-06 4.38369e-05 -0.00089029 0.000428505 0.000893992 0.000228494 -0.000167632 
0.0006519 0.000320753 -0.000428535 -0.0762876 -0.00664252 -8.94658e-13 0.000278346 -0.000685172 0.000288854 
-3.34604e-05 -8.1421e-05 -8.34085e-05 0.00489137 -0.0195864 1.4428e-11 0.000346302 0.00150826 -3.13612e-05 
0.000919131 -0.000496841 -0.000428326 0.00022151 0.000368058 4.76689e-06 0.000154663 0.000779951 6.81302e-06 
8.42348e-05 0.000305826 3.61661e-05 -8.80808e-06 0.00181565 -0.000767649 0.000140805 0.00039493 -5.71955e-07 
-1.02407e-05 0.000201756 -2.00977e-05 -6.05459e-05 0.00141884 2.14032e-05 0.00133589 -0.0034643 4.36258e-07 
-0.00016923 -0.00234541 -5.36811e-05 4.42586e-05 7.90857e-06 -1.52732e-05 8.8726e-06 5.42973e-05 1.43255e-05 
-0.000322129 0.0011288 1.37415e-11 -0.00208556 -0.00268911 -2.62125e-05 -5.37943e-05 0.000321998 6.0488e-06 
3.90932e-05 4.72845e-05 6.93403e-08 2.05398e-05 5.59871e-05 -1.83981e-05 -1.36589e-05 -3.90323e-06 -7.31293e-06 
8.10269e-06 3.77672e-05 1.84866e-05 0.00415023 -0.00133137 -1.65265e-06 0.00411849 0.00446806 -5.58534e-07 
-0.00151736 0.00330958 4.77196e-06 0.00111049 0.00238766 0.00248622 0.03061 -0.00978458 -0.00106245 
-0.000510626 -0.00155999 0.000159476 0.0456159 -0.130354 0.00667563 -0.0115599 -0.00554726 -0.000370514 
0.000972177 1.45778e-05 -3.91241e-05 -0.000536206 -0.00232944 0.000105827 0.00343352 -0.0024245 -0.000732268 
0.32602 -0.0409355 -0.0622277 0.00245812 0.00100505 -0.00300171 0.00170529 -0.00106475 0.000370313 
0.00107911 7.13152e-05 -9.28127e-05 -0.000447351 -0.00286645 -3.43698e-05 0.0031043 0.00152191 -0.000128275 
-0.00105074 -0.000736417 0.000420694 4.72932e-06 -0.00068436 2.27224e-05 -0.00173843 -0.000641253 0.000586789 
0.00241789 -0.00108018 -4.55913e-06 -3.79127e-05 -0.000675562 1.6022e-06 -0.00091562 -0.000161578 0.000229919 
0.00149493 7.05968e-05 1.62094e-05 0.000373244 0.00115605 -3.81537e-07 6.73481e-05 0.000153565 -1.2725e-07 
5.66166e-05 -0.000304293 -1.76253e-06 -0.00087186 -4.9606e-05 5.934e-05 -0.00164738 -0.0024089 7.36041e-05 
-0.000996019 -0.000181821 0.000117635 0.00108049 -6.92464e-05 -1.1518e-06 0.00109233 -0.000447085 2.21785e-06 
0.00129243 -0.000723441 1.8218e-05 0.00122245 -0.000542108 -7.8704e-06 -6.03411e-06 -0.00135886 -0.00111535 
0.00453917 -0.00148275 0.00288102 0.00107504 -0.00436378 -0.000531802 -0.00466027 -0.00728937 0.00516747 
0.0116767 0.0154599 -1.55516e-11 0.00550429 -0.00506891 6.75881e-05 -7.04189e-06 -0.0261039 0.00133378 
0.00335912 -0.0017742 0.00118493 -0.0056233 -0.00578649 0.00155787 -0.00129496 -0.0022703 1.72817e-05 
-0.00598393 -0.00417744 0.00572604 -0.00110808 -0.00277033 -2.6982e-05 0.0199845 -0.0542817 -5.79777e-07 
-1.7121e-05 -1.65457e-05 -1.20032e-06 0.0264768 -0.0424345 -4.00559e-05 0.00224386 0.00105304 2.21552e-05 
-0.0111166 0.0019322 0.000213655 0.00211311 -0.000163634 -4.78807e-05 0.00336341 -0.0136074 0.00390401 
1.41531e-06 -0.0263767 0.000137556 -0.000628537 -0.0390955 -1.15097e-11 -0.00823796 -0.00700523 1.65507e-05 
-0.000691115 0.00252051 1.79582e-05 -0.00260253 -0.000548557 6.63844e-05 -0.0023392 -0.0241855 0.0141273 
3.25778e-06 5.65302e-05 1.8928e-05 -4.73207e-05 -0.00116315 -6.543e-05 0.013977 -0.00447334 2.34371e-05 
-0.000359459 3.82876e-05 0.000334938 -0.10278 -0.0418021 -0.00271804 4.39254e-05 -0.000286892 0.00184207 
-0.000386019 -0.000703661 0.000874712 -0.0371947 0.0668828 -0.0654108 3.4275e-06 -0.00090646 -0.000574791 
0.0028587 -0.00104142 -0.00516182 -0.000392289 -0.00043436 -0.000197716 -1.62719e-05 -0.00100884 3.41212e-05 
0.000397758 -0.00244526 0.000836589 0.000417397 -0.00121701 -0.000575543 0.00208706 0.00138049 -0.00685363 
8.23937e-06 -0.00193645 5.9649e-06 0.000537672 -0.00155956 -1.9133e-05 -0.000513157 -0.000143178 0.00012409 
-0.000230676 -0.00227092 9.10528e-05 4.64882e-05 -0.00064155 -1.46142e-05 3.10689e-05 -0.00199106 3.07977e-05 