# vtk DataFile Version 4.0
Generated by LIGGGHTS
ASCII
DATASET POLYDATA
POINTS 834 float
0.00844804 0.00680527 0.0140178 0.0131888 0.00166028 0.0164544 0.00795691 0.0119102 0.0135775 
0.0090251 0.0153598 0.0148287 0.0104062 0.0268639 0.0160994 0.0214659 0.0290058 0.0144342 
0.0176603 0.0295638 0.0156994 0.0143331 0.0287116 0.016083 0.00673508 0.0392073 0.0160757 
0.0178733 0.0377034 0.0154933 0.0201038 0.0414697 0.0162321 0.0225284 0.0343253 0.0164235 
0.00217018 0.0566907 0.0148992 0.00418213 0.0535135 0.0157517 0.00845178 0.0534956 0.0157931 
0.00470345 0.0590695 0.0163547 0.0217693 0.0636077 0.0161155 0.00890187 0.0679317 0.0164827 
0.00254164 0.0667222 0.0165025 0.0169642 0.0685253 0.0158046 0.00292458 0.00459217 0.0171431 
0.0118562 0.00782132 0.0194496 0.00959177 0.00278027 0.0193568 0.0073314 0.00751152 0.021905 
0.0113896 0.00435135 0.0217566 0.00284316 0.00317792 0.0237091 0.0057805 0.00250871 0.0236945 
0.00566917 0.00544428 0.0206472 0.0205599 0.00375371 0.0186437 0.015665 0.00583687 0.0170522 
0.0128862 0.0062146 0.0213059 0.0176911 0.00329532 0.0201242 0.018421 0.00652441 0.020548 
0.0217211 0.00664946 0.0220219 0.0226663 0.00139677 0.0195612 0.0158177 0.000924417 0.0240194 
0.0165528 0.00104881 0.0199994 0.0211612 0.00165672 0.0228555 0.00219654 0.0162748 0.0167068 
0.00783978 0.0101656 0.0179816 0.0108472 0.0139544 0.020653 0.00357581 0.00836295 0.0211012 
0.00461686 0.0110043 0.0190195 0.0105105 0.0116071 0.0206996 0.0085781 0.0131697 0.0241001 
0.00516691 0.00936795 0.0241113 0.00709992 0.0154877 0.0201212 0.0231063 0.0107814 0.0174921 
0.0195778 0.0114288 0.0216855 0.0140958 0.0132982 0.019376 0.0123189 0.0122838 0.0223462 
0.0186397 0.010572 0.0238286 0.0161106 0.0102288 0.0239449 0.0158779 0.0101076 0.0215198 
0.0198485 0.0136771 0.024336 0.0226805 0.0151832 0.0241516 0.0215441 0.0129459 0.022887 
0.0216297 0.00996518 0.0239317 0.00709034 0.023174 0.0187001 0.00308342 0.0221653 0.019901 
0.00529244 0.0188048 0.0185721 0.0116058 0.0172309 0.0215465 0.0041968 0.0191185 0.0200826 
0.00914235 0.0231966 0.0208174 0.00181676 0.0198225 0.0213262 0.00623406 0.0178971 0.0215775 
0.00220238 0.0231027 0.0245184 0.00599076 0.0209071 0.0238514 0.00959355 0.0215053 0.0245092 
0.0028263 0.0173276 0.0200979 0.0112761 0.0209088 0.0204244 0.00128124 0.017966 0.0218286 
0.0148928 0.0230402 0.0189618 0.0176988 0.0244545 0.019302 0.022581 0.0227675 0.0187208 
0.019805 0.0205858 0.0214267 0.0157715 0.0177297 0.0207531 0.0202048 0.0202193 0.019027 
0.0124606 0.0201595 0.0223146 0.0215956 0.0170964 0.0233652 0.0122354 0.0246779 0.02394 
0.0160737 0.0194211 0.0242234 0.0209217 0.0223702 0.0202402 0.0153986 0.019298 0.0201989 
0.0108832 0.0296624 0.0186131 0.0113487 0.0306972 0.0173527 0.00407608 0.0332766 0.0195038 
0.0092696 0.0316573 0.020956 0.00230251 0.0322374 0.021069 0.00660921 0.0280517 0.0206478 
0.000900116 0.0257758 0.0220185 0.00382032 0.0253825 0.0199838 0.0115072 0.0284662 0.022748 
0.0104991 0.0300776 0.0247751 0.00193815 0.030997 0.0245597 0.00880397 0.0258914 0.0228585 
0.0182659 0.031296 0.021298 0.0220485 0.0306753 0.0207111 0.0129352 0.0310327 0.0199782 
0.0216686 0.0251729 0.0204506 0.019608 0.0252894 0.0231919 0.0208499 0.0316083 0.0224207 
0.0145974 0.0319076 0.0229761 0.0139818 0.0268154 0.0244501 0.0205605 0.0274485 0.0208478 
0.0168242 0.0308651 0.0243225 0.0146258 0.026391 0.0211824 0.0159696 0.0300902 0.0205737 
0.00797306 0.0351687 0.0169008 0.00343213 0.0370204 0.0166618 0.0110207 0.0388953 0.0216069 
0.0106619 0.0386286 0.0187991 0.00996367 0.0357004 0.0229295 0.00596676 0.0351776 0.0214033 
0.00597108 0.0374407 0.0237064 0.0113988 0.0341469 0.0226918 0.00146146 0.0338178 0.0235546 
0.00500286 0.0346023 0.0241235 0.0082902 0.0416088 0.0243002 0.00228648 0.0361135 0.0243903 
0.017175 0.0404566 0.0183748 0.0123328 0.0405337 0.0202392 0.014766 0.0363065 0.0181409 
0.0206607 0.0374848 0.0202634 0.0180476 0.0415061 0.0207374 0.0149588 0.0366776 0.0229766 
0.0200636 0.0340106 0.0202809 0.0212804 0.0364281 0.0237299 0.0065439 0.0476948 0.0167196 
0.00856018 0.0467983 0.0192363 0.00389644 0.0484977 0.0176718 0.00832877 0.0428933 0.0215712 
0.0033338 0.0474631 0.023934 0.00624403 0.0481769 0.0230513 0.0040563 0.0442909 0.0220913 
0.0017815 0.0425404 0.0202235 0.0113224 0.0445424 0.0236489 0.00437483 0.0491548 0.023786 
0.0160413 0.0442543 0.0164946 0.0144577 0.0461063 0.0186796 0.0225443 0.0455754 0.0198304 
0.0139264 0.0431249 0.016817 0.0204667 0.04823 0.0194106 0.0166099 0.0450187 0.0222391 
0.0173435 0.0466248 0.0234658 0.0143815 0.0446302 0.021824 0.0208839 0.0449282 0.0232621 
0.0228257 0.0491904 0.0237724 0.0167404 0.0493665 0.0243623 0.015843 0.0482782 0.0223503 
0.00981223 0.0546996 0.0215666 0.00522034 0.0568425 0.0175325 0.0117949 0.0567916 0.0219406 
0.0048504 0.0518319 0.0233322 0.00690818 0.0558209 0.0218807 0.00497465 0.0529602 0.0207763 
0.00265563 0.0538131 0.0246421 0.00121332 0.0507394 0.0245126 0.00821754 0.0506709 0.0202785 
0.0215164 0.0582485 0.0174255 0.0159258 0.0525458 0.0193171 0.0130256 0.0550133 0.0179722 
0.0200155 0.0579948 0.0198966 0.0224189 0.0560622 0.0215773 0.0180764 0.0564767 0.0204704 
0.0205196 0.0542458 0.0227505 0.0184619 0.0542899 0.0193395 0.0152161 0.0549241 0.0237751 
0.0135239 0.0501626 0.0226334 0.0188146 0.0512296 0.0245602 0.00924167 0.0646967 0.0195735 
0.0116891 0.0583731 0.017553 0.00628006 0.0655537 0.0216406 0.00677609 0.0627677 0.0218524 
0.00353967 0.0599039 0.0210622 0.00390816 0.0637994 0.0198809 0.00870837 0.0625645 0.0209306 
0.011525 0.066611 0.022009 0.00241169 0.0662939 0.0207485 0.00311129 0.0607478 0.0245763 
0.00566715 0.0636928 0.0236367 0.0080749 0.0587799 0.0245258 0.0143938 0.0645765 0.0210878 
0.022676 0.0600376 0.0171913 0.0125131 0.0622152 0.0178874 0.0207494 0.0657106 0.0220466 
0.0197336 0.0595487 0.01899 0.0140253 0.0609346 0.0192752 0.0179495 0.0657639 0.02244 
0.0150993 0.0665221 0.0245193 0.0143587 0.0584142 0.0227934 0.0166142 0.0612334 0.0200659 
0.0146122 0.0605922 0.0237117 0.0192075 0.0663352 0.0245036 0.0225044 0.0608904 0.0246592 
0.0216987 0.0640802 0.0248052 0.0216479 0.061216 0.0225994 0.00461083 0.0693915 0.0202811 
0.0076424 0.06812 0.0208307 0.00938029 0.0704313 0.0224094 0.00159804 0.0671234 0.023649 
0.00414249 0.0712295 0.0215289 0.00222974 0.0711288 0.0244666 0.00411259 0.0674925 0.0232509 
0.00550481 0.0731226 0.024349 0.00893613 0.0674814 0.0240882 0.0142797 0.0700204 0.0186292 
0.0157491 0.0706358 0.0170508 0.0198245 0.0720953 0.0193892 0.0154734 0.0675839 0.0202022 
0.0123205 0.0686813 0.0180238 0.0159856 0.0715792 0.0224195 0.022956 0.0682447 0.0244057 
0.0179568 0.0703149 0.0201172 0.0217023 0.0707441 0.0242755 0.018957 0.0708377 0.0242564 
0.0103529 0.00171083 0.0253706 0.000958321 0.00782428 0.0248943 0.00693432 0.00361614 0.0273665 
0.0045196 0.0029912 0.0263709 0.0103416 0.00830573 0.0255914 0.00285892 0.00564683 0.030724 
0.00176935 0.00451734 0.0275883 0.00233337 0.00271905 0.0281003 0.000905409 0.00375843 0.0261987 
0.0066945 0.0078913 0.0310714 0.00254613 0.00239847 0.0312534 0.0050315 0.00811064 0.026078 
0.00127525 0.0037768 0.0305117 0.00634028 0.00331278 0.0310468 0.00195055 0.00771449 0.0331517 
0.018264 0.00760126 0.0256584 0.0127962 0.00758782 0.0297371 0.0163719 0.00593223 0.0302987 
0.0123749 0.00291593 0.0323344 0.0212298 0.00151872 0.0291524 0.0131504 0.00783268 0.0267653 
0.0203487 0.00374519 0.0278202 0.0175142 0.00274671 0.0313508 0.0173614 0.00269626 0.0261626 
0.0158421 0.00641332 0.0252493 0.0186126 0.0059296 0.0318271 0.0158331 0.00483826 0.032596 
0.0129432 0.00282134 0.0272455 0.0206444 0.00748017 0.0276775 0.00774502 0.015904 0.025754 
0.00326843 0.0138265 0.0283302 0.00794544 0.00913169 0.0269945 0.00592004 0.0147744 0.0273818 
0.00963175 0.0161548 0.0253677 0.00395151 0.0155215 0.025634 0.01077 0.011809 0.027818 
0.00198227 0.0126904 0.0261102 0.00406339 0.01024 0.0310925 0.00683447 0.0147955 0.0253718 
0.00641469 0.0115688 0.0316942 0.00981468 0.0105857 0.0251883 0.00902794 0.0140894 0.0296719 
0.00303224 0.00883697 0.0320914 0.00824673 0.00890476 0.0324879 0.00846248 0.0155761 0.0331115 
0.0221824 0.00970732 0.0260455 0.0212754 0.0140336 0.0264954 0.0184809 0.0101861 0.0264559 
0.0192274 0.0122753 0.0284747 0.0155823 0.0117822 0.0277548 0.0152726 0.0144112 0.0285057 
0.0130933 0.0121709 0.0314726 0.0181886 0.0140878 0.0258917 0.0123561 0.0157791 0.0311822 
0.0151599 0.0150812 0.0264977 0.0221154 0.0155542 0.0317889 0.00678265 0.0167357 0.0286377 
0.00410589 0.0240813 0.0274441 0.00938785 0.0172223 0.0284553 0.00752008 0.0188469 0.0279008 
0.00549383 0.0210196 0.0282768 0.00663197 0.0234065 0.0257019 0.00803141 0.0249019 0.0301322 
0.00936081 0.0224072 0.0288538 0.00727309 0.02156 0.0319655 0.00258067 0.016669 0.0322671 
0.0033961 0.0196407 0.0302868 0.00207245 0.0238132 0.0310893 0.00362024 0.0170389 0.0292582 
0.0103925 0.0187783 0.0325597 0.00328639 0.0184004 0.0328313 0.0191879 0.0249202 0.0271495 
0.0140346 0.0243441 0.0251451 0.0181586 0.0227732 0.0252045 0.0211836 0.0204822 0.0294011 
0.0152654 0.0192084 0.0282377 0.0178715 0.0199662 0.0265256 0.0191481 0.0170126 0.0302949 
0.0226415 0.0195473 0.0272366 0.0216698 0.0199188 0.0249147 0.0171576 0.0224252 0.0299322 
0.01303 0.021897 0.0323918 0.0214485 0.0180516 0.0274162 0.0210688 0.023568 0.0327495 
0.00504555 0.0265219 0.025983 0.00344882 0.0313877 0.0267856 0.0102634 0.025745 0.0250241 
0.00837284 0.0323634 0.0300511 0.00231526 0.0269901 0.0277449 0.00102733 0.0324567 0.0296304 
0.00315944 0.0268242 0.0307899 0.00514814 0.0281524 0.0316725 0.00988498 0.0277711 0.0289561 
0.0118314 0.0318001 0.0253101 0.0112258 0.0251834 0.0329887 0.00709328 0.0274852 0.027157 
0.0145387 0.0267897 0.0274473 0.0218672 0.0303104 0.0265985 0.0220037 0.0255455 0.0263335 
0.0132822 0.032341 0.029328 0.0221385 0.0307882 0.0304191 0.021793 0.0324299 0.0276475 
0.0154848 0.0313488 0.0310751 0.0125429 0.0281451 0.0308209 0.0198608 0.0271607 0.0307491 
[...]
POINT_DATA 834
FIELD FieldData 7
id 1 834 int
35 114 15 68 188 74 58 22 3 
7 55 99 109 128 163 40 86 171 
224 69 125 367 403 442 449 549 399 
707 197 290 332 5 412 509 568 572 
599 140 83 235 408 461 510 654 305 
336 781 232 400 414 36 710 340 753 
754 475 816 824 98 310 355 227 394 
110 500 4 583 740 429 790 794 802 
91 280 307 344 105 443 155 354 638 
689 749 761 100 225 349 151 170 111 
261 479 721 556 371 823 285 301 34 
422 370 66 96 682 691 31 777 780 
106 196 283 450 226 626 350 701 20 
738 273 519 265 276 293 338 46 296 
698 127 78 32 343 407 494 533 24 
684 63 206 21 139 189 253 491 565 
238 604 627 242 57 795 228 279 493 
389 559 668 672 53 822 88 94 121 
135 244 487 560 564 679 706 430 233 
284 311 318 495 574 608 661 694 579 
17 490 210 240 322 323 325 382 138 
609 384 709 85 216 501 269 820 136 
51 287 586 621 611 29 203 814 148 
260 314 335 358 571 525 757 184 457 
45 47 271 304 373 405 434 446 512 
590 272 65 704 719 162 56 425 521 
529 531 553 643 185 660 675 246 464 
779 792 87 41 243 270 281 353 390 
473 507 582 315 635 657 298 345 420 
177 180 205 19 397 448 517 569 327 
681 75 179 54 209 42 366 406 566 
603 392 637 663 674 743 37 395 84 
112 190 249 77 380 388 436 456 601 
478 711 723 93 103 254 319 468 591 
605 229 612 629 726 767 176 186 263 
294 357 411 518 540 102 201 44 92 
204 739 199 771 48 245 267 330 472 
537 554 686 320 766 104 634 95 80 
181 268 211 538 13 356 715 133 417 
437 6 630 664 695 713 716 737 339 
241 161 328 391 143 499 544 580 594 
615 645 702 115 255 150 306 43 308 
359 378 511 636 644 659 149 561 122 
778 807 386 418 252 588 595 613 680 
38 717 222 725 257 797 809 79 387 
401 427 508 514 142 584 602 71 773 
784 82 266 352 375 28 174 470 585 
152 683 759 156 195 218 363 424 462 
632 292 728 64 158 207 14 640 134 
708 215 178 404 423 482 505 282 607 
617 620 692 9 796 10 59 118 173 
208 374 192 485 606 610 26 727 763 
670 52 73 164 187 379 477 524 545 
12 377 649 220 731 764 62 782 89 
60 230 237 277 278 221 146 653 101 
720 113 787 798 27 137 341 444 295 
542 213 669 733 818 372 447 2 548 
107 573 676 25 147 735 800 129 175 
342 398 438 458 489 546 633 744 578 
758 786 108 619 23 33 214 250 116 
145 528 144 650 678 696 419 760 793 
11 1 324 346 361 421 124 690 783 
236 291 49 360 459 480 616 647 409 
805 30 141 198 381 451 117 577 598 
202 76 165 705 810 160 234 72 520 
302 365 688 504 736 120 804 812 212 
329 347 651 667 677 685 813 819 166 
259 167 410 452 474 496 547 317 426 
618 658 746 765 247 251 275 303 313 
119 396 481 536 168 562 157 699 97 
334 231 39 183 614 655 656 662 666 
368 714 724 803 297 16 402 439 393 
539 8 687 745 748 416 775 523 67 
153 312 376 467 541 159 576 131 642 
50 769 788 492 497 628 806 825 321 
526 552 631 722 768 61 219 256 535 
557 742 774 123 274 454 484 503 581 
718 750 801 169 299 435 575 671 755 
756 762 789 81 154 182 348 502 515 
534 596 624 648 652 712 200 217 432 
488 498 592 623 665 732 191 193 455 
751 90 132 248 262 286 333 362 369 
431 465 469 530 673 729 734 223 309 
316 516 532 625 730 817 126 194 288 
326 331 364 476 513 772 808 172 239 
337 415 527 555 558 700 752 258 289 
460 506 646 791 815 821 440 70 471 
543 570 597 693 776 799 351 383 433 
445 466 483 522 563 587 741 770 264 
300 453 463 567 589 600 622 639 703 
18 130 428 441 486 550 551 641 697 
747 811 385 413 593 785 826 827 828 
829 830 831 832 833 834 
type 1 834 int
1 1 1 1 1 1 1 1 1 
1 1 1 1 1 1 1 1 1 
1 1 1 1 1 1 1 1 1 
1 1 1 1 1 1 1 1 1 
1 1 1 1 1 1 1 1 1 
1 1 1 1 1 1 1 1 1 
1 1 1 1 1 1 1 1 1 
1 1 1 1 1 1 1 1 1 
1 1 1 1 1 1 1 1 1 
1 1 1 1 1 1 1 1 1 
1 1 1 1 1 1 1 1 1 
1 1 1 1 1 1 1 1 1 
1 1 1 1 1 1 1 1 1 
1 1 1 1 1 1 1 1 1 
1 1 1 1 1 1 1 1 1 
1 1 1 1 1 1 1 1 1 
1 1 1 1 1 1 1 1 1 
1 1 1 1 1 1 1 1 1 
1 1 1 1 1 1 1 1 1 
1 1 1 1 1 1 1 1 1 
1 1 1 1 1 1 1 1 1 
1 1 1 1 1 1 1 1 1 
1 1 1 1 1 1 1 1 1 
1 1 1 1 1 1 1 1 1 
1 1 1 1 1 1 1 1 1 
1 1 1 1 1 1 1 1 1 
1 1 1 1 1 1 1 1 1 
1 1 1 1 1 1 1 1 1 
1 1 1 1 1 1 1 1 1 
1 1 1 1 1 1 1 1 1 
1 1 1 1 1 1 1 1 1 
1 1 1 1 1 1 1 1 1 
1 1 1 1 1 1 1 1 1 
1 1 1 1 1 1 1 1 1 
1 1 1 1 1 1 1 1 1 
1 1 1 1 1 1 1 1 1 
1 1 1 1 1 1 1 1 1 
1 1 1 1 1 1 1 1 1 
1 1 1 1 1 1 1 1 1 
1 1 1 1 1 1 1 1 1 
1 1 1 1 1 1 1 1 1 
1 1 1 1 1 1 1 1 1 
1 1 1 1 1 1 1 1 1 
1 1 1 1 1 1 1 1 1 
1 1 1 1 1 1 1 1 1 
1 1 1 1 1 1 1 1 1 
1 1 1 1 1 1 1 1 1 
1 1 1 1 1 1 1 1 1 
1 1 1 1 1 1 1 1 1 
1 1 1 1 1 1 1 1 1 
1 1 1 1 1 1 1 1 1 
1 1 1 1 1 1 1 1 1 
1 1 1 1 1 1 1 1 1 
1 1 1 1 1 1 1 1 1 
1 1 1 1 1 1 1 1 1 
1 1 1 1 1 1 1 1 1 
1 1 1 1 1 1 1 1 1 
1 1 1 1 1 1 1 1 1 
1 1 1 1 1 1 1 1 1 
1 1 1 1 1 1 1 1 1 
1 1 1 1 1 1 1 1 1 
1 1 1 1 1 1 1 1 1 
1 1 1 1 1 1 1 1 1 
1 1 1 1 1 1 1 1 1 
1 1 1 1 1 1 1 1 1 
1 1 1 1 1 1 1 1 1 
1 1 1 1 1 1 1 1 1 
1 1 1 1 1 1 1 1 1 
1 1 1 1 1 1 1 1 1 
1 1 1 1 1 1 1 1 1 
1 1 1 1 1 1 1 1 1 
1 1 1 1 1 1 1 1 1 
1 1 1 1 1 1 1 1 1 
1 1 1 1 1 1 1 1 1 
1 1 1 1 1 1 1 1 1 
1 1 1 1 1 1 1 1 1 
1 1 1 1 1 1 1 1 1 
1 1 1 1 1 1 1 1 1 
1 1 1 1 1 1 1 1 1 
1 1 1 1 1 1 1 1 1 
1 1 1 1 1 1 1 1 1 
1 1 1 1 1 1 1 1 1 
1 1 1 1 1 1 1 1 1 
1 1 1 1 1 1 1 1 1 
1 1 1 1 1 1 1 1 1 
1 1 1 1 1 1 1 1 1 
1 1 1 1 1 1 1 1 1 
1 1 1 1 1 1 1 1 1 
1 1 1 1 1 1 1 1 1 
1 1 1 1 1 1 1 1 1 
1 1 1 1 1 1 1 1 1 
1 1 1 1 1 1 1 1 1 
1 1 1 1 1 1 
i 3 834 int
0 0 0 0 0 0 0 0 0 
0 0 0 0 0 0 0 0 0 
0 0 0 0 0 0 0 0 0 
0 0 0 0 0 0 0 0 0 
0 0 0 0 0 0 0 0 0 
0 0 0 0 0 0 0 0 0 
0 0 0 0 0 0 0 0 0 
0 0 0 0 0 0 0 0 0 
0 0 0 0 0 0 0 0 0 
0 0 0 0 0 0 0 0 0 
0 0 0 0 0 0 0 0 0 
0 0 0 0 0 0 0 0 0 
0 0 0 0 0 0 0 0 0 
0 0 0 0 0 0 0 0 0 
0 0 0 0 0 0 0 0 0 
0 0 0 0 0 0 0 0 0 
0 0 0 0 0 0 0 0 0 
0 0 0 0 0 0 0 0 0 
0 0 0 0 0 0 0 0 0 
0 0 0 0 0 0 0 0 0 
0 0 0 0 0 0 0 0 0 
0 0 0 0 0 0 0 0 0 
0 0 0 0 0 0 0 0 0 
0 0 0 0 0 0 0 0 0 
0 0 0 0 0 0 0 0 0 
0 0 0 0 0 0 0 0 0 
0 0 0 0 0 0 0 0 0 
0 0 0 0 0 0 0 0 0 
0 0 0 0 0 0 0 0 0 
0 0 0 0 0 0 0 0 0 
0 0 0 0 0 0 0 0 0 
0 0 0 0 0 0 0 0 0 
0 0 0 0 0 0 0 0 0 
0 0 0 0 0 0 0 0 0 
0 0 0 0 0 0 0 0 0 
0 0 0 0 0 0 0 0 0 
0 0 0 0 0 0 0 0 0 
0 0 0 0 0 0 0 0 0 
0 0 0 0 0 0 0 0 0 
0 0 0 0 0 0 0 0 0 
0 0 0 0 0 0 0 0 0 
0 0 0 0 0 0 0 0 0 
0 0 0 0 0 0 0 0 0 
0 0 0 0 0 0 0 0 0 
0 0 0 0 0 0 0 0 0 
0 0 0 0 0 0 0 0 0 
0 0 0 0 0 0 0 0 0 
0 0 0 0 0 0 0 0 0 
0 0 0 0 0 0 0 0 0 
0 0 0 0 0 0 0 0 0 
0 0 0 0 0 0 0 0 0 
0 0 0 0 0 0 0 0 0 
0 0 0 0 0 0 0 0 0 
0 0 0 0 0 0 0 0 0 
0 0 0 0 0 0 0 0 0 
0 0 0 0 0 0 0 0 0 
0 0 0 0 0 0 0 0 0 
0 0 0 0 0 0 0 0 0 
0 0 0 0 0 0 0 0 0 
0 0 0 0 0 0 0 0 0 
0 0 0 0 0 0 0 0 0 
0 0 0 0 0 0 0 0 0 
0 0 0 0 0 0 0 0 0 
0 0 0 0 0 0 0 0 0 
0 0 0 0 0 0 0 0 0 
0 0 0 0 0 0 0 0 0 
0 0 0 0 0 0 0 0 0 
0 0 0 0 0 0 0 0 0 
0 0 0 0 0 0 0 0 0 
0 0 0 0 0 0 0 0 0 
0 0 0 0 0 0 0 0 0 
0 0 0 0 0 0 0 0 0 
0 0 0 0 0 0 0 0 0 
0 0 0 0 0 0 0 0 0 
0 0 0 0 0 0 0 0 0 
0 0 0 0 0 0 0 0 0 
0 0 0 0 0 0 0 0 0 
0 0 0 0 0 0 0 0 0 
0 0 0 0 0 0 0 0 0 
0 0 0 0 0 0 0 0 0 
0 0 0 0 0 0 0 0 0 
0 0 0 0 0 0 0 0 0 
0 0 0 0 0 0 0 0 0 
0 0 0 0 0 0 0 0 0 
0 0 0 0 0 0 0 0 0 
0 0 0 0 0 0 0 0 0 
0 0 0 0 0 0 0 0 0 
0 0 0 0 0 0 0 0 0 
0 0 0 0 0 0 0 0 0 
0 0 0 0 0 0 0 0 0 
0 0 0 0 0 0 0 0 0 
0 0 0 0 0 0 0 0 0 
0 0 0 0 0 0 0 0 0 
0 0 0 0 0 0 0 0 0 
0 0 0 0 0 0 0 0 0 
0 0 0 0 0 0 0 0 0 
0 0 0 0 0 0 0 0 0 
0 0 0 0 0 0 0 0 0 
0 0 0 0 0 0 0 0 0 
0 0 0 0 0 0 0 0 0 
0 0 0 0 0 0 0 0 0 
0 0 0 0 0 0 0 0 0 
0 0 0 0 0 0 0 0 0 
0 0 0 0 0 0 0 0 0 
0 0 0 0 0 0 0 0 0 
0 0 0 0 0 0 0 0 0 
0 0 0 0 0 0 0 0 0 
0 0 0 0 0 0 0 0 0 
0 0 0 0 0 0 0 0 0 
0 0 0 0 0 0 0 0 0 
0 0 0 0 0 0 0 0 0 
0 0 0 0 0 0 0 0 0 
0 0 0 0 0 0 0 0 0 
0 0 0 0 0 0 0 0 0 
0 0 0 0 0 0 0 0 0 
0 0 0 0 0 0 0 0 0 
0 0 0 0 0 0 0 0 0 
0 0 0 0 0 0 0 0 0 
0 0 0 0 0 0 0 0 0 
0 0 0 0 0 0 0 0 0 
0 0 0 0 0 0 0 0 0 
0 0 0 0 0 0 0 0 0 
0 0 0 0 0 0 0 0 0 
0 0 0 0 0 0 0 0 0 
0 0 0 0 0 0 0 0 0 
0 0 0 0 0 0 0 0 0 
0 0 0 0 0 0 0 0 0 
0 0 0 0 0 0 0 0 0 
0 0 0 0 0 0 0 0 0 
0 0 0 0 0 0 0 0 0 
0 0 0 0 0 0 0 0 0 
0 0 0 0 0 0 0 0 0 
0 0 0 0 0 0 0 0 0 
0 0 0 0 0 0 0 0 0 
0 0 0 0 0 0 0 0 0 
0 0 0 0 0 0 0 0 0 
0 0 0 0 0 0 0 0 0 
0 0 0 0 0 0 0 0 0 
0 0 0 0 0 0 0 0 0 
0 0 0 0 0 0 0 0 0 
0 0 0 0 0 0 0 0 0 
0 0 0 0 0 0 0 0 0 
0 0 0 0 0 0 0 0 0 
0 0 0 0 0 0 0 0 0 
0 0 0 0 0 0 0 0 0 
0 0 0 0 0 0 0 0 0 
0 0 0 0 0 0 0 0 0 
0 0 0 0 0 0 0 0 0 
0 0 0 0 0 0 0 0 0 
0 0 0 0 0 0 0 0 0 
0 0 0 0 0 0 0 0 0 
0 0 0 0 0 0 0 0 0 
0 0 0 0 0 0 0 0 0 
0 0 0 0 0 0 0 0 0 
0 0 0 0 0 0 0 0 0 
0 0 0 0 0 0 0 0 0 
0 0 0 0 0 0 0 0 0 
0 0 0 0 0 0 0 0 0 
0 0 0 0 0 0 0 0 0 
0 0 0 0 0 0 0 0 0 
0 0 0 0 0 0 0 0 0 
0 0 0 0 0 0 0 0 0 
0 0 0 0 0 0 0 0 0 
0 0 0 0 0 0 0 0 0 
0 0 0 0 0 0 0 0 0 
0 0 0 0 0 0 0 0 0 
0 0 0 0 0 0 0 0 0 
0 0 0 0 0 0 0 0 0 
0 0 0 0 0 0 0 0 0 
0 0 0 0 0 0 0 0 0 
0 0 0 0 0 0 0 0 0 
0 0 0 0 0 0 0 0 0 
0 0 0 0 0 0 0 0 0 
0 0 0 0 0 0 0 0 0 
0 0 0 0 0 0 0 0 0 
0 0 0 0 0 0 0 0 0 
0 0 0 0 0 0 0 0 0 
0 0 0 0 0 0 0 0 0 
0 0 0 0 0 0 0 0 0 
0 0 0 0 0 0 0 0 0 
0 0 0 0 0 0 0 0 0 
0 0 0 0 0 0 0 0 0 
0 0 0 0 0 0 0 0 0 
0 0 0 0 0 0 0 0 0 
0 0 0 0 0 0 0 0 0 
0 0 0 0 0 0 0 0 0 
0 0 0 0 0 0 0 0 0 
0 0 0 0 0 0 0 0 0 
0 0 0 0 0 0 0 0 0 
0 0 0 0 0 0 0 0 0 
0 0 0 0 0 0 0 0 0 
0 0 0 0 0 0 0 0 0 
0 0 0 0 0 0 0 0 0 
0 0 0 0 0 0 0 0 0 
0 0 0 0 0 0 0 0 0 
0 0 0 0 0 0 0 0 0 
0 0 0 0 0 0 0 0 0 
0 0 0 0 0 0 0 0 0 
0 0 0 0 0 0 0 0 0 
0 0 0 0 0 0 0 0 0 
0 0 0 0 0 0 0 0 0 
0 0 0 0 0 0 0 0 0 
0 0 0 0 0 0 0 0 0 
0 0 0 0 0 0 0 0 0 
0 0 0 0 0 0 0 0 0 
0 0 0 0 0 0 0 0 0 
0 0 0 0 0 0 0 0 0 
0 0 0 0 0 0 0 0 0 
0 0 0 0 0 0 0 0 0 
0 0 0 0 0 0 0 0 0 
0 0 0 0 0 0 0 0 0 
0 0 0 0 0 0 0 0 0 
0 0 0 0 0 0 0 0 0 
0 0 0 0 0 0 0 0 0 
0 0 0 0 0 0 0 0 0 
0 0 0 0 0 0 0 0 0 
0 0 0 0 0 0 0 0 0 
0 0 0 0 0 0 0 0 0 
0 0 0 0 0 0 0 0 0 
0 0 0 0 0 0 0 0 0 
0 0 0 0 0 0 0 0 0 
0 0 0 0 0 0 0 0 0 
0 0 0 0 0 0 0 0 0 
0 0 0 0 0 0 0 0 0 
0 0 0 0 0 0 0 0 0 
0 0 0 0 0 0 0 0 0 
0 0 0 0 0 0 0 0 0 
0 0 0 0 0 0 0 0 0 
0 0 0 0 0 0 0 0 0 
0 0 0 0 0 0 0 0 0 
0 0 0 0 0 0 0 0 0 
0 0 0 0 0 0 0 0 0 
0 0 0 0 0 0 0 0 0 
0 0 0 0 0 0 0 0 0 
0 0 0 0 0 0 0 0 0 
0 0 0 0 0 0 0 0 0 
0 0 0 0 0 0 0 0 0 
0 0 0 0 0 0 0 0 0 
0 0 0 0 0 0 0 0 0 
0 0 0 0 0 0 0 0 0 
0 0 0 0 0 0 0 0 0 
0 0 0 0 0 0 0 0 0 
0 0 0 0 0 0 0 0 0 
0 0 0 0 0 0 0 0 0 
0 0 0 0 0 0 0 0 0 
0 0 0 0 0 0 0 0 0 
0 0 0 0 0 0 0 0 0 
0 0 0 0 0 0 0 0 0 
0 0 0 0 0 0 0 0 0 
0 0 0 0 0 0 0 0 0 
0 0 0 0 0 0 0 0 0 
0 0 0 0 0 0 0 0 0 
0 0 0 0 0 0 0 0 0 
0 0 0 0 0 0 0 0 0 
0 0 0 0 0 0 0 0 0 
0 0 0 0 0 0 0 0 0 
0 0 0 0 0 0 0 0 0 
0 0 0 0 0 0 0 0 0 
0 0 0 0 0 0 0 0 0 
0 0 0 0 0 0 0 0 0 
0 0 0 0 0 0 0 0 0 
0 0 0 0 0 0 0 0 0 
0 0 0 0 0 0 0 0 0 
0 0 0 0 0 0 0 0 0 
0 0 0 0 0 0 0 0 0 
0 0 0 0 0 0 0 0 0 
0 0 0 0 0 0 0 0 0 
0 0 0 0 0 0 0 0 0 
0 0 0 0 0 0 0 0 0 
0 0 0 0 0 0 0 0 0 
0 0 0 0 0 0 0 0 0 
0 0 0 0 0 0 0 0 0 
0 0 0 0 0 0 0 0 0 
0 0 0 0 0 0 0 0 0 
0 0 0 0 0 0 0 0 0 
0 0 0 0 0 0 0 0 0 
0 0 0 0 0 0 0 0 0 
0 0 0 0 0 0 0 0 0 

v 3 834 double
0 0 -3.55046 0 0 -3.21913 0 0 -3.59093 
0 0 -3.40012 0 0 -2.87774 0 0 -3.36775 
0 0 -3.44966 0 0 -3.58112 0 0 -3.65592 
0 0 -3.63801 0 0 -3.458 0 0 -3.27357 
0 0 -3.25248 0 0 -3.16027 0 0 -2.99521 
0 0 -3.50484 0 0 -3.32311 0 0 -2.96824 
0 0 -2.70042 0 0 -3.39865 0 0 -3.1713 
-0.00273215 0.00426215 -2.09175 0 0 -1.88742 0.0557779 -0.0455058 -1.79424 
0 0 -1.6976 0 0 -1.2662 0 0 -1.90949 
0 0 -0.556693 0.190212 0.0344681 -3.092 0 0 -2.43727 
0.039888 -0.0622251 -2.15235 -0.122629 0.0866975 -3.27726 0 0 -1.86338 
0 0 -1.39692 0 0 -1.1448 0 0 -1.12984 
-0.45872 -0.822419 -1.67409 0 0 -3.10803 0 0 -3.33979 
0 0 -2.6629 0 0 -1.87712 0 0 -1.62574 
0 0 -1.39177 -1.0649 -0.398517 -2.14749 0 0 -2.37203 
-0.169904 0.188055 -2.13133 0.155197 -0.422516 -0.616717 0 0 -2.67001 
0 0 -1.90336 0 0 -1.85946 0.156933 0.0587293 -3.34554 
0.0445256 0.106641 -2.4335 0 0 -2.21532 0 0 -0.364172 
-0.799317 -0.188055 -2.40207 0.403467 0.314011 -2.63844 0 0 -0.0865487 
0 0 -0.0588355 0 0 -3.28019 0 0 -2.33647 
0 0 -2.14272 -0.012008 -0.0419599 -2.7121 -0.390168 0.238636 -2.92901 
0 0 -3.24856 0 0 -1.43003 -0.152559 0.798005 -2.39849 
0 0 -1.06927 0 0 -0.408807 0 0 -1.77559 
0 0 -0.217757 -0.776062 0.503595 -2.10081 0 0 -0.159878 
0 0 -3.29663 0 0 -2.47479 0 0 -2.35756 
0 0 -2.19815 0.121526 -0.511079 -2.83353 0 0 -1.71574 
0.18535 -0.0473065 -2.5789 0 0 -2.14371 0 0 -0.848786 
0 0 -0.63223 0 0 -0.388206 -0.178288 0.749788 -0.952056 
0 0 -3.27186 0 0 -2.69969 0 0 -2.17412 
0 0 -3.04966 0 0 -2.97363 0 0 -3.24733 
0 0 -2.56063 0 0 -1.5242 0 0 -0.506417 
0 0 -1.21543 -0.339372 -0.0877807 -2.94597 0 0 -0.069136 
-0.0481721 -0.183533 -2.64611 0 0 -2.39239 0 0 -3.5507 
0 0 -1.80771 0 0 -2.07528 0.415995 0.0358724 -2.99806 
0 0 -3.28068 0 0 -0.66215 0 0 -0.623646 
-0.322916 -0.153282 -2.67183 0 0 -0.267298 0 0 -0.255526 
0 0 -3.25984 0 0 -2.83335 0.0612203 0.0454207 -1.63473 
-0.0114826 -0.0125648 -1.71386 0 0 -2.69674 0 0 -0.903231 
0 0 -2.17289 0 0 -0.585142 0 0 -3.58259 
0 0 -0.410769 0 0 -2.4976 -0.0938357 -0.179619 -2.23541 
0 0 -2.52801 0.217437 0.247939 -2.21682 0 0 -2.42476 
0 0 -2.22292 0 0 -3.48449 0 0 -2.42059 
0.365242 0.54276 -1.13786 0 0 -3.161 0 0 -3.35181 
0 0 -3.55414 0 0 -2.1984 0 0 -1.87982 
0 0 -1.45186 0 0 -1.31967 0 0 -3.57204 
0 0 -0.653321 -0.257967 -0.00740146 -2.98405 0 0 -2.77915 
0 0 -3.58185 0 0 -3.10876 0 0 -2.87749 
0 0 -2.60993 0 0 -1.46289 -0.102233 -0.223824 -1.6598 
0.149843 0.328059 -1.92932 0.813813 0.0233495 -2.34844 0.0926181 0.0980514 -1.11811 
0 0 -2.64353 0.203123 0.246317 -2.80973 -0.641175 -0.777521 -2.222 
-0.246035 -0.259592 -2.49559 0 0 -2.47504 0.0362581 0.038256 -1.48271 
0 0 -1.95879 0 0 -1.1941 0 0 -0.688883 
0 0 -0.681035 0 0 -3.47296 0 0 -0.071098 
0 0 -3.31257 0 0 -3.28191 0 0 -3.20441 
0.0273997 -0.151065 -2.89148 0 0 -2.62096 0 0 -1.47908 
0 0 -1.1838 0 0 -1.16344 0 0 -0.66632 
0 0 -0.556938 0 0 -1.76994 0 0 -2.66731 
0 0 -2.46008 0 0 -2.33402 -0.163025 -0.0684213 -2.554 
0 0 -1.44965 0 0 -1.11292 0.686954 -0.104307 -1.77993 
0 0 -0.722972 0 0 -0.618741 0 0 -1.08913 
-0.156383 0.11692 -2.97622 0 0 -1.4651 0 0 -2.76615 
0 0 -2.64966 0 0 -2.30606 -0.0133133 0.0228637 -2.3525 
-0.0401972 0.221623 -2.63883 0 0 -2.01201 0 0 -3.11391 
0 0 -0.982447 -0.039724 -0.0484978 -3.20615 0 0 -0.549335 
0 0 -3.32728 0 0 -2.73451 0.17546 0.18249 -1.9298 
0.0286358 -0.0491778 -2.38904 0 0 -0.0747767 0 0 -3.12225 
0 0 -3.48007 0 0 -2.45223 -0.189328 -0.0277932 -1.11726 
0 0 -0.921134 -0.0634578 0.0180459 -1.15917 0.27769 0.0407646 -3.46696 
0 0 -2.79558 0 0 -0.0912085 0 0 -3.05971 
0 0 -2.56284 0 0 -2.322 0 0 -2.23126 
0 0 -2.13046 -0.0438626 -0.0765574 -1.74439 0 0 -1.34125 
0.544456 -0.386311 -1.27062 0 0 -2.90055 0.168706 0.253945 -2.90542 
0 0 -3.48522 0 0 -3.48302 0 0 -2.50324 
0 0 -2.3816 0 0 -2.05983 0 0 -1.8835 
0 0 -1.76528 0 0 -1.71329 0 0 -1.38049 
0 0 -1.04278 0 0 -2.503 -0.0409797 -0.302151 -2.41053 
0 0 -0.557919 0 0 -0.512548 -0.268847 -0.296442 -2.61591 
0 0 -3.45481 0 0 -1.79815 0 0 -1.34762 
0 0 -1.32678 0 0 -1.32334 0 0 -1.22108 
0 0 -0.831128 0 0 -2.88436 0 0 -0.739159 
0 0 -0.679073 0.00722025 -0.0468282 -2.73416 -0.312652 0.0796898 -3.03764 
0 0 -0.25945 0 0 -0.213343 -0.260732 -0.0346721 -3.09884 
0.319951 0.282615 -2.24236 0 0 -2.63519 -0.0542656 -0.0547664 -2.42835 
0.121254 0.0161244 -2.57705 0 0 -2.15499 0 0 -1.95805 
-0.148731 -0.131375 -2.12945 0.224807 0.300672 -1.73524 0.315376 -0.00446093 -2.39673 
0 0 -2.32127 0 0 -0.878706 0 0 -0.746762 
-0.0413814 -0.0984192 -2.32701 0 0 -2.19472 0 0 -1.82292 
0 0 -2.91919 0.129959 0.0374482 -2.711 -0.0832097 -0.205365 -2.22503 
-0.104684 -0.0112146 -2.99855 0 0 -1.91636 0.029538 -0.175715 -0.814217 
0 0 -1.3567 -0.739863 0.0271059 -1.82034 0.186022 -0.301706 -2.67263 
-0.00638269 0.0379692 -0.85768 0 0 -3.36284 0.071362 0.174288 -2.7344 
0 0 -3.471 0 0 -2.76664 0 0 -3.49135 
0 0 -2.08583 0 0 -1.88104 0 0 -1.15805 
0 0 -1.00452 0 0 -1.94849 0 0 -0.868406 
0 0 -0.7112 0 0 -0.679808 0 0 -0.397035 
-0.287462 -0.000343567 -3.18696 0.128328 0.0586184 -2.53398 -0.201277 -0.0446964 -3.1955 
0 0 -3.2385 0 0 -2.8618 -0.0409972 0.02804 -2.48753 
0 0 -3.35622 0 0 -2.03604 0 0 -1.9708 
0.575732 -0.309857 -2.0327 -0.0247212 0.00454176 -1.80592 0 0 -1.00869 
0.109525 0.140518 -1.59002 0 0 -0.54394 0 0 -0.497588 
0 0 -3.28657 0.0733044 0.0189606 -3.07408 0 0 -2.60845 
0 0 -2.30949 0 0 -1.59435 0 0 -1.04155 
-0.332499 -0.222076 -1.48214 0.332499 0.222076 -2.19116 0 0 -0.958412 
0 0 -0.895628 0 0 -0.481156 0 0 -0.30384 
0 0 -2.92237 0 0 -2.88117 0.0935682 0.0207782 -2.60937 
0 0 -2.42354 0 0 -2.13561 0 0 -1.86903 
-0.201 0.200289 -1.99427 -0.510305 0.149276 -1.64196 0 0 -3.26621 
0.331268 -0.0286677 -2.40914 0 0 -3.48645 0.237109 -0.0693603 -3.13134 
0 0 -2.78798 0 0 -0.410033 -0.0605007 -0.0797059 -2.70027 
0 0 -0.282749 0.137625 0.263439 -2.18295 0 0 -2.61925 
0 0 -2.51305 0 0 -2.26044 0 0 -1.54897 
0 0 -1.30421 0 0 -1.2196 0 0 -0.637871 
0 0 -2.309 0 0 -0.306538 0 0 -3.26254 
-0.301992 0.19161 -1.09826 0 0 -3.28142 0 0 -3.34985 
0 0 -2.91011 0 0 -2.51207 0 0 -2.761 
0 0 -1.29514 0 0 -3.60981 0 0 -2.13684 
0 0 -0.526282 0 0 -3.14702 0 0 -1.84892 
0 0 -1.75032 0 0 -3.64856 0 0 -0.893176 
0 0 -0.708993 0.0671942 0.020188 -0.637417 0 0 -0.535111 
-0.0762995 -0.142359 -0.835403 0 0 -0.413467 0 0 -2.22096 
-0.336116 0.0930269 -2.52592 -0.561487 0.339939 -1.51061 0 0 -2.28497 
0.322862 -0.0908924 -2.50287 0.214679 -0.0921817 -1.76206 -0.0680389 0.0292154 -1.84763 
0 0 -1.27552 0 0 -1.08006 0.0627277 -0.0712913 -1.2071 
0 0 -0.942716 0 0 -0.82843 0 0 -0.560372 
-0.220131 0.0619713 -2.8466 0 0 -2.59717 0 0 -3.05432 
0 0 -2.36222 0 0 -3.48768 0 0 -2.34824 
0 0 -2.12776 0 0 -2.04732 0 0 -1.38883 
0 0 -0.869877 0 0 -0.828675 0 0 -0.74063 
0 0 -3.05726 0 0 -1.17006 0 0 -3.20049 
0 0 -0.262393 0 0 -0.136334 0 0 -1.98233 
0 0 -1.84278 0 0 -2.61213 0 0 -1.05112 
0 0 -1.03248 0 0 -0.957431 0 0 -0.664848 
0 0 -3.54286 0 0 -0.516962 0 0 -2.71391 
0 0 -0.482137 0 0 -2.58123 0 0 -0.188818 
0 0 -0.129467 0 0 -3.35156 0 0 -1.97154 
0 0 -1.90115 0 0 -1.78049 0 0 -1.39716 
0.0567675 -0.019494 -1.54378 0.338616 0.360027 -2.56612 0 0 -1.06583 
-0.338616 -0.360027 -1.52975 -0.565513 0.194198 -1.6808 -0.161659 -0.226718 -1.657 
0 0 -0.243263 0.00858598 0.0104823 -3.07837 -0.0308942 -0.00148073 -2.45058 
0 0 -2.15719 0.0419356 -0.214638 -2.12 -0.0541781 0.339645 -3.07028 
0.161659 0.226718 -1.55107 0.116054 0.0168653 -2.62915 0 0 -1.05995 
0 0 -3.04672 0 0 -0.654548 0 0 -0.344797 
0 0 -3.02219 0 0 -2.84414 0 0 -2.72421 
0 0 -2.09343 0 0 -1.80011 0.136506 -0.038819 -1.19183 
0 0 -0.886554 0 0 -2.42991 0 0 -0.474044 
-0.606728 -0.119901 -2.10855 -0.0169437 -0.0255045 -2.88547 0.19598 -0.0340436 -1.71495 
0 0 -3.59951 0 0 -0.844371 0 0 -3.13157 
-0.122994 -0.00543968 -0.765462 0 0 -2.74187 0.845846 -0.370483 -1.43405 
0 0 -1.88423 0.343145 -0.1075 -2.11427 0 0 -1.51513 
0 0 -1.41311 0.348568 -0.0138324 -2.11191 -0.109949 -0.272237 -2.05291 
-0.245249 0.230046 -1.73864 0 0 -0.922851 0 0 -0.620458 
0.134546 0.378155 -2.04238 0 0 -0.189554 -0.0489942 0.31776 -2.84722 
0 0 -3.43568 0.0460625 -0.0117406 -2.99732 0 0 -2.93586 
0 0 -2.77106 0.00549515 -0.0271523 -1.91287 0 0 -2.8591 
-0.0173385 0.0856722 -1.93927 0 0 -0.987842 0 0 -0.960374 
0 0 -3.56591 0 0 -0.47527 0 0 -0.324196 
0 0 -0.682751 0 0 -3.47738 -0.30053 0.0692561 -2.99582 
0 0 -2.99399 -0.134429 0.120639 -3.09583 0 0 -2.03972 
0 0 -1.53058 0 0 -1.34296 0 0 -1.27503 
0 0 -3.61692 0 0 -2.04879 0.575716 -0.489833 -3.24882 
-0.116538 0.24784 -2.93831 0 0 -0.453443 0 0 -0.31831 
-0.00114713 -0.0209362 -3.31709 0 0 -0.246697 0.382885 -0.0647562 -2.6365 
0 0 -3.43348 0 0 -2.67712 0 0 -2.65996 
0 0 -2.48362 0 0 -2.48191 0 0 -2.71514 
0 0 -3.06683 0 0 -0.789926 0 0 -3.27137 
-0.823312 0.139244 -1.93915 0 0 -3.22501 -0.000907476 -0.00300224 -0.2172 
0.00286331 0.00947279 -0.195748 0 0 -3.56419 -0.128328 -0.0586184 -2.50757 
0 0 -2.21458 -0.338547 -0.0841917 -2.00603 -0.436766 -0.160859 -1.67862 
-0.00595796 -0.227576 -1.37613 0 0 -2.75094 0.297991 0.109749 -1.19088 
0 0 -0.4505 0 0 -0.0806627 0 0 -2.07013 
0.197473 -0.355371 -2.49309 -0.214311 0.264254 -2.86955 0 0 -1.26865 
0.036751 -0.0971152 -3.34124 0 0 -1.12665 0 0 -0.675394 
-0.0116427 0.0307659 -3.54325 0 0 -3.06609 0 0 -0.422296 
0.610983 0.330705 -2.52898 0 0 -3.1583 0.462182 0.456377 -2.60664 
0 0 -2.20526 0 0 -1.91342 0 0 -1.73831 
0 0 -1.64291 0 0 -1.47025 0 0 -1.27405 
0 0 -0.885328 0 0 -0.396545 0 0 -1.09649 
-0.0998702 -0.0986158 -0.414811 0 0 -0.237377 0.312962 0.166576 -2.77898 