# vtk DataFile Version 4.0
Generated by LIGGGHTS
ASCII
DATASET POLYDATA
POINTS 538 float
0.0101676 0.0045723 0.0116574 0.00412255 0.0043821 0.0108755 0.00639296 0.00213945 0.0121393 
0.00310376 0.00662388 0.0116572 0.000677974 0.00743672 0.010678 0.00686851 0.00652247 0.0121393 
0.00216548 0.00344739 0.0106778 0.00421839 0.000770603 0.0107705 0.000770491 0.0059942 0.0107704 
0.00219837 0.00145877 0.0114587 0.00566259 0.00443616 0.010678 0.00389095 0.00275542 0.0107705 
0.00794017 0.00418889 0.0107704 0.000770473 0.00302633 0.0107704 0.000770467 0.000770475 0.0130262 
0.00118585 0.00451027 0.0107705 0.00262203 0.00099446 0.0138301 0.000875495 0.00313051 0.0124097 
0.00269508 0.0046093 0.0105965 0.00251226 0.00409232 0.0121813 0.00439953 0.00457301 0.0130302 
0.00830469 0.00414933 0.0133207 0.000994307 0.00649791 0.0132591 0.00347982 0.0026629 0.0131694 
0.0098637 0.0014772 0.0114587 0.000770492 0.00519414 0.0120874 0.0102472 0.00756419 0.0124938 
0.00233202 0.00524807 0.0136401 0.00879791 0.000875471 0.0134464 0.0114731 0.000994481 0.0132463 
0.000770496 0.00442403 0.0134221 0.00957837 0.00690839 0.0108754 0.0114221 0.00684233 0.0137568 
0.0120251 0.00576486 0.0126684 0.0120197 0.00590404 0.0107705 0.0125941 0.00128394 0.0112839 
0.0151993 0.0061758 0.01113 0.0224508 0.00366352 0.0114587 0.016554 0.00399429 0.0114588 
0.0192432 0.00450474 0.0112839 0.02287 0.00113004 0.01113 0.014516 0.000770461 0.0107704 
0.0160237 0.00194138 0.0107704 0.020885 0.00087549 0.0108754 0.0215658 0.00553367 0.010678 
0.0167259 0.000677941 0.010678 0.0186062 0.00165748 0.0116574 0.0228699 0.00782057 0.01113 
0.0166397 0.00768721 0.0123417 0.0172216 0.00621175 0.0108755 0.0226723 0.0062823 0.0127741 
0.013445 0.00407471 0.0116574 0.0198413 0.00717584 0.0114587 0.0230055 0.00192305 0.0130963 
0.0231245 0.00582104 0.0108754 0.0230055 0.00441329 0.0137278 0.020998 0.00530968 0.0122515 
0.0150503 0.0016387 0.0127529 0.021457 0.000875482 0.0125303 0.0130075 0.00810144 0.011883 
0.0200635 0.000994486 0.0137715 0.0089935 0.00906664 0.0112839 0.00468112 0.0121636 0.0112839 
0.00794252 0.0142679 0.0121393 0.00633361 0.00887118 0.0106779 0.00425902 0.0150528 0.0116574 
0.0111408 0.0108408 0.0114587 0.00442706 0.00943818 0.0114587 0.00113001 0.0118114 0.01113 
0.00146147 0.00926493 0.0114588 0.00830777 0.011868 0.010678 0.00077047 0.0136426 0.0107704 
0.00192772 0.0156608 0.0108754 0.00966559 0.0123639 0.0107704 0.00113329 0.0145931 0.0123758 
0.00687846 0.0106559 0.0112839 0.010242 0.0093581 0.0130216 0.000677981 0.0128508 0.0125386 
0.00347459 0.0110521 0.013042 0.00882436 0.0110515 0.0129121 0.0113852 0.0132374 0.0109944 
0.0026495 0.0129013 0.0123992 0.00610939 0.0118901 0.0130379 0.00315637 0.0171913 0.0131783 
0.01072 0.00795746 0.010678 0.00453005 0.0130519 0.0133766 0.0107345 0.0151246 0.0109944 
0.000525221 0.0157265 0.0106558 0.000770478 0.0161652 0.0133802 0.0113661 0.0141716 0.0126142 
0.0179027 0.00939457 0.0128145 0.0155376 0.00921513 0.0109944 0.016146 0.00986968 0.0127713 
0.0173424 0.0154029 0.0112839 0.0141946 0.0114295 0.0116574 0.0205848 0.0107038 0.0109944 
0.0153575 0.0164005 0.0108754 0.0181608 0.00911745 0.01113 0.0220885 0.0125858 0.0114587 
0.0189426 0.0106838 0.010678 0.0212356 0.00895478 0.0108754 0.0168963 0.0109908 0.01113 
0.0228697 0.0101067 0.01113 0.0204479 0.0155684 0.011883 0.0159681 0.0144503 0.0126503 
0.018839 0.0126701 0.0114587 0.0163032 0.0131858 0.01113 0.0230053 0.0138524 0.0133492 
0.0125087 0.010457 0.0134588 0.0142899 0.0158102 0.0137197 0.0203285 0.011086 0.0134041 
0.0231243 0.0145954 0.0108755 0.0148969 0.0132263 0.0132987 0.0232286 0.0153274 0.0124064 
0.0144484 0.00976314 0.0135481 0.0136512 0.0146996 0.0116573 0.0230056 0.0165424 0.0109944 
0.00136014 0.0172461 0.0122879 0.00629175 0.0166734 0.0109944 0.0101017 0.0168883 0.0133305 
0.000770465 0.017004 0.0107704 0.00624847 0.0239931 0.0114587 0.00305608 0.0197539 0.0109944 
0.00826676 0.024574 0.010678 0.00128402 0.0212716 0.0112839 0.00693885 0.0213046 0.0108755 
0.00407825 0.0223228 0.0112839 0.00113006 0.0188674 0.01113 0.00240956 0.0173441 0.0108754 
0.00526567 0.0202269 0.0111299 0.00996056 0.0201161 0.0107704 0.0104096 0.0185361 0.0108754 
0.00287683 0.0231043 0.0134147 0.0090079 0.0166469 0.0107705 0.000770484 0.0231934 0.0107704 
0.00598472 0.0217523 0.012422 0.00304329 0.0208344 0.0126642 0.00786909 0.0189103 0.011883 
0.00443712 0.0179649 0.0112839 0.00925262 0.0224189 0.011883 0.00473362 0.0194548 0.0133543 
0.00099447 0.0238707 0.0123847 0.00545703 0.0168834 0.0127108 0.0044254 0.0217639 0.0132488 
0.00472947 0.0233602 0.0128218 0.00886253 0.0241816 0.0136996 0.0080356 0.0246616 0.0126115 
0.0110268 0.024503 0.0109944 0.00293004 0.0246195 0.0112839 0.0111756 0.0244833 0.0131136 
0.0117038 0.0229452 0.010678 0.00087532 0.0251427 0.0108754 0.0119206 0.0170484 0.0112838 
0.0159216 0.0167739 0.0129261 0.0123052 0.0187077 0.0124327 0.0133234 0.016873 0.0129162 
0.0171617 0.0178053 0.01113 0.0137474 0.0224479 0.0109944 0.0149773 0.0240368 0.0109944 
0.0231237 0.0228008 0.0108755 0.0194348 0.0187806 0.0112839 0.0120878 0.0207012 0.0114587 
0.0155091 0.022892 0.0127033 0.0181727 0.0218129 0.0107705 0.0170724 0.0233271 0.01113 
0.0187403 0.0170486 0.0106779 0.023336 0.0213707 0.0105965 0.0223423 0.0190232 0.0116573 
0.0142897 0.0184193 0.0114588 0.0161874 0.0216433 0.0107705 0.016175 0.0193892 0.0107703 
0.020567 0.0220842 0.011883 0.0145947 0.0210291 0.0121272 0.0231247 0.0169159 0.0128242 
0.014053 0.0203942 0.0106779 0.0173124 0.0204862 0.0129018 0.0143989 0.0217411 0.0137303 
0.0176458 0.0250674 0.0128753 0.0181704 0.0232688 0.0129478 0.0231246 0.0212718 0.0125219 
0.0230056 0.0230614 0.0130573 0.00936163 0.0264578 0.0116574 0.00946213 0.0287158 0.0107705 
0.00747306 0.0286818 0.0112839 0.00854924 0.0322365 0.01113 0.00128432 0.0320055 0.0112838 
0.00331037 0.0271589 0.0112839 0.000994473 0.0271735 0.0109944 0.00535412 0.0287637 0.0108755 
0.0060127 0.0312077 0.0116574 0.00584034 0.0266997 0.0112839 0.0106445 0.031389 0.01113 
0.0089764 0.0302881 0.0108754 0.00165741 0.0293147 0.0124115 0.00440105 0.0256377 0.0131263 
0.00383482 0.0298474 0.0109944 0.00457002 0.0285859 0.0127691 0.00143982 0.02593 0.0126585 
0.0033186 0.031211 0.0121653 0.00710669 0.0261821 0.0132728 0.00739876 0.025616 0.010678 
0.000770467 0.0274156 0.0136368 0.00231876 0.0334399 0.0116718 0.00344661 0.0326633 0.0109944 
0.00931965 0.0293718 0.0123275 0.000596508 0.0312515 0.0128633 0.0122445 0.0315048 0.012934 
0.0117177 0.0288611 0.0116574 0.00749798 0.0333899 0.0122148 0.00697924 0.0332508 0.0107705 
0.0116171 0.0266032 0.0107704 0.000875476 0.0335244 0.0127634 0.019082 0.0257707 0.012999 
0.0121451 0.0308528 0.010525 0.0222588 0.0251863 0.0116574 0.013005 0.0242938 0.0109944 
0.0167953 0.0255703 0.01113 0.0127299 0.0262091 0.0124518 0.0201969 0.026084 0.0122877 
0.0153006 0.0251527 0.0127731 0.019084 0.0248179 0.0112839 0.0144632 0.0259581 0.0109944 
0.0157401 0.0274831 0.0109944 0.0179931 0.0276605 0.0112839 0.0144389 0.0291571 0.01113 
0.0129462 0.0324727 0.0109944 0.0225412 0.0314152 0.0114587 0.0195831 0.0266695 0.010678 
0.0151957 0.031611 0.0114587 0.0196248 0.0315179 0.0114587 0.0234033 0.0268296 0.0105965 
0.016457 0.0293168 0.012135 0.0134974 0.0274215 0.0107708 0.0185382 0.0294777 0.0120722 
0.0173634 0.031748 0.010678 0.0233034 0.0280984 0.010678 0.0209918 0.0284848 0.011883 
0.013369 0.030517 0.0116559 0.0177103 0.0302467 0.0108754 0.0174027 0.0312061 0.0124507 
0.0142742 0.0275276 0.0120982 0.0196406 0.0330256 0.0132408 0.0198407 0.0336618 0.0107704 
0.023322 0.0331127 0.0124955 0.0232296 0.0272246 0.0125507 0.000994428 0.0342468 0.0109944 
0.000875476 0.0361153 0.0108754 0.00274489 0.0342671 0.0107704 0.000875468 0.0378662 0.0108754 
0.00602319 0.0354307 0.010678 0.011478 0.040659 0.0121393 0.00782087 0.0349167 0.01113 
0.00692741 0.0375045 0.0116573 0.00386803 0.0362283 0.0116574 0.00674336 0.0408234 0.0116573 
0.00931055 0.0365484 0.0109944 0.00394941 0.0393372 0.0114587 0.00946942 0.0385428 0.0109944 
0.00128394 0.0399602 0.0112839 0.00520905 0.0338419 0.01113 0.00128799 0.0356367 0.0129403 
0.0104667 0.0341972 0.0116574 0.00490306 0.0380522 0.0134938 0.0047913 0.0405709 0.0136312 
0.0019401 0.038024 0.0125677 0.00922321 0.0401697 0.0105965 0.0086415 0.0392641 0.0129749 
0.00619347 0.0351606 0.0122765 0.00917689 0.0414407 0.010678 0.0128874 0.0343379 0.0108754 
0.0025812 0.0407063 0.013178 0.0174603 0.0340319 0.011883 0.0147217 0.0339846 0.0109944 
0.0212326 0.0334558 0.0118359 0.0136513 0.0390408 0.0134614 0.0179633 0.0367234 0.0109944 
0.0230056 0.033779 0.0109944 0.0129026 0.0369059 0.011883 0.0155398 0.0378632 0.0109944 
0.0140104 0.0410845 0.0107704 0.0196493 0.0389916 0.011883 0.0203042 0.035742 0.0114587 
0.0232295 0.0402776 0.0107705 0.0154387 0.0358769 0.0109944 0.0172324 0.0383142 0.0107705 
0.022702 0.038298 0.0112839 0.0228699 0.0358948 0.01113 0.0178832 0.0408561 0.0108754 
0.0223651 0.0402549 0.0129122 0.0146133 0.0396003 0.011793 0.0162108 0.0394804 0.0107704 
0.0159517 0.0413339 0.01113 0.017062 0.0399222 0.0121081 0.0153508 0.0370686 0.0123598 
0.0142813 0.0412875 0.0126026 0.00582018 0.049259 0.0120848 0.00337117 0.0500053 0.0133972 
0.00773556 0.0425551 0.0132171 0.00317505 0.0451675 0.0125228 0.00860783 0.0484968 0.0125087 
0.00586304 0.0477156 0.0127276 0.00940072 0.0464685 0.0122517 0.00470244 0.0435413 0.0128252 
0.00664877 0.0436329 0.0121093 0.00276851 0.0462171 0.0109944 0.0106131 0.0479264 0.0114587 
0.00145058 0.045496 0.0122979 0.000875481 0.0465701 0.0108754 0.00128425 0.0480955 0.0123481 
0.00370893 0.0444645 0.0109944 0.000770437 0.0449309 0.0107704 0.00707548 0.0494393 0.0109944 
0.00166045 0.0428534 0.0116574 0.0112023 0.0446639 0.011883 0.00843285 0.0455819 0.01113 
0.0058651 0.0456159 0.0114587 0.00792286 0.0476398 0.0109944 0.00386519 0.0483619 0.0114587 
0.00607053 0.0478668 0.0108754 0.00847309 0.043173 0.0112839 0.00560441 0.0433229 0.0108754 
[...]
POINT_DATA 538
FIELD FieldData 7
id 1 538 int
1 2 3 4 5 6 7 8 9 
10 11 12 13 14 15 16 17 18 
19 20 21 22 24 25 26 29 31 
33 34 35 38 39 45 55 56 57 
58 59 60 61 62 63 64 65 66 
67 68 69 70 71 72 73 76 77 
80 81 82 85 90 95 96 106 107 
108 109 110 111 112 113 114 115 116 
117 118 119 120 121 122 124 126 128 
129 131 132 133 134 141 144 155 162 
163 164 165 166 167 168 169 170 171 
172 173 174 175 176 177 178 179 181 
184 187 190 191 192 194 197 198 200 
219 220 222 223 224 225 226 227 228 
229 230 231 232 233 234 235 236 237 
238 239 240 241 242 244 245 248 250 
251 254 262 264 265 270 273 275 276 
279 283 284 285 286 287 288 289 290 
291 292 293 294 295 296 297 298 299 
300 301 302 303 305 306 308 309 310 
317 330 331 332 333 334 335 336 337 
338 339 340 341 342 343 344 346 347 
348 349 351 353 357 359 362 366 368 
375 376 379 380 382 385 386 387 388 
389 390 391 392 393 394 395 396 397 
398 399 400 401 402 403 404 405 406 
408 409 410 411 413 415 416 417 418 
419 421 435 436 437 439 440 441 442 
443 444 445 446 447 448 449 450 451 
453 455 456 457 458 459 460 466 478 
479 497 498 499 500 501 502 503 504 
505 506 507 508 509 510 511 513 514 
515 516 517 522 523 524 535 486 487 
488 489 490 491 492 493 494 495 496 
512 518 519 520 521 525 526 527 528 
529 530 531 532 533 534 536 537 538 
438 452 454 461 462 463 464 465 467 
468 469 470 471 472 473 474 475 476 
477 480 481 482 483 484 485 355 356 
358 360 361 363 364 365 367 369 370 
371 372 373 374 377 378 381 383 384 
407 412 414 420 422 423 424 425 426 
427 428 429 430 431 432 433 434 266 
267 268 269 271 272 274 277 278 280 
281 282 304 307 311 312 313 314 315 
316 318 319 320 321 322 323 324 325 
326 327 328 329 345 350 352 354 207 
208 209 210 211 212 213 214 215 216 
217 218 221 243 246 247 249 252 253 
255 256 257 258 259 260 261 263 142 
143 145 146 147 148 149 150 151 152 
153 154 156 157 158 159 160 161 180 
182 183 185 186 188 189 193 195 196 
199 201 202 203 204 205 206 86 87 
88 89 91 92 93 94 97 98 99 
100 101 102 103 104 105 123 125 127 
130 135 136 137 138 139 140 23 27 
28 30 32 36 37 40 41 42 43 
44 46 47 48 49 50 51 52 53 
54 74 75 78 79 83 84 
type 1 538 int
1 1 1 1 1 1 1 1 1 
1 1 1 1 1 1 1 1 1 
1 1 1 1 1 1 1 1 1 
1 1 1 1 1 1 1 1 1 
1 1 1 1 1 1 1 1 1 
1 1 1 1 1 1 1 1 1 
1 1 1 1 1 1 1 1 1 
1 1 1 1 1 1 1 1 1 
1 1 1 1 1 1 1 1 1 
1 1 1 1 1 1 1 1 1 
1 1 1 1 1 1 1 1 1 
1 1 1 1 1 1 1 1 1 
1 1 1 1 1 1 1 1 1 
1 1 1 1 1 1 1 1 1 
1 1 1 1 1 1 1 1 1 
1 1 1 1 1 1 1 1 1 
1 1 1 1 1 1 1 1 1 
1 1 1 1 1 1 1 1 1 
1 1 1 1 1 1 1 1 1 
1 1 1 1 1 1 1 1 1 
1 1 1 1 1 1 1 1 1 
1 1 1 1 1 1 1 1 1 
1 1 1 1 1 1 1 1 1 
1 1 1 1 1 1 1 1 1 
1 1 1 1 1 1 1 1 1 
1 1 1 1 1 1 1 1 1 
1 1 1 1 1 1 1 1 1 
1 1 1 1 1 1 1 1 1 
1 1 1 1 1 1 1 1 1 
1 1 1 1 1 1 1 1 1 
1 1 1 1 1 1 1 1 1 
1 1 1 1 1 1 1 1 1 
1 1 1 1 1 1 1 1 1 
1 1 1 1 1 1 1 1 1 
1 1 1 1 1 1 1 1 1 
1 1 1 1 1 1 1 1 1 
1 1 1 1 1 1 1 1 1 
1 1 1 1 1 1 1 1 1 
1 1 1 1 1 1 1 1 1 
1 1 1 1 1 1 1 1 1 
1 1 1 1 1 1 1 1 1 
1 1 1 1 1 1 1 1 1 
1 1 1 1 1 1 1 1 1 
1 1 1 1 1 1 1 1 1 
1 1 1 1 1 1 1 1 1 
1 1 1 1 1 1 1 1 1 
1 1 1 1 1 1 1 1 1 
1 1 1 1 1 1 1 1 1 
1 1 1 1 1 1 1 1 1 
1 1 1 1 1 1 1 1 1 
1 1 1 1 1 1 1 1 1 
1 1 1 1 1 1 1 1 1 
1 1 1 1 1 1 1 1 1 
1 1 1 1 1 1 1 1 1 
1 1 1 1 1 1 1 1 1 
1 1 1 1 1 1 1 1 1 
1 1 1 1 1 1 1 1 1 
1 1 1 1 1 1 1 1 1 
1 1 1 1 1 1 1 1 1 
1 1 1 1 1 1 1 
i 3 538 int
0 0 0 0 0 0 0 0 0 
0 0 0 0 0 0 0 0 0 
0 0 0 0 0 0 0 0 0 
0 0 0 0 0 0 0 0 0 
0 0 0 0 0 0 0 0 0 
0 0 0 0 0 0 0 0 0 
0 0 0 0 0 0 0 0 0 
0 0 0 0 0 0 0 0 0 
0 0 0 0 0 0 0 0 0 
0 0 0 0 0 0 0 0 0 
0 0 0 0 0 0 0 0 0 
0 0 0 0 0 0 0 0 0 
0 0 0 0 0 0 0 0 0 
0 0 0 0 0 0 0 0 0 
0 0 0 0 0 0 0 0 0 
0 0 0 0 0 0 0 0 0 
0 0 0 0 0 0 0 0 0 
0 0 0 0 0 0 0 0 0 
0 0 0 0 0 0 0 0 0 
0 0 0 0 0 0 0 0 0 
0 0 0 0 0 0 0 0 0 
0 0 0 0 0 0 0 0 0 
0 0 0 0 0 0 0 0 0 
0 0 0 0 0 0 0 0 0 
0 0 0 0 0 0 0 0 0 
0 0 0 0 0 0 0 0 0 
0 0 0 0 0 0 0 0 0 
0 0 0 0 0 0 0 0 0 
0 0 0 0 0 0 0 0 0 
0 0 0 0 0 0 0 0 0 
0 0 0 0 0 0 0 0 0 
0 0 0 0 0 0 0 0 0 
0 0 0 0 0 0 0 0 0 
0 0 0 0 0 0 0 0 0 
0 0 0 0 0 0 0 0 0 
0 0 0 0 0 0 0 0 0 
0 0 0 0 0 0 0 0 0 
0 0 0 0 0 0 0 0 0 
0 0 0 0 0 0 0 0 0 
0 0 0 0 0 0 0 0 0 
0 0 0 0 0 0 0 0 0 
0 0 0 0 0 0 0 0 0 
0 0 0 0 0 0 0 0 0 
0 0 0 0 0 0 0 0 0 
0 0 0 0 0 0 0 0 0 
0 0 0 0 0 0 0 0 0 
0 0 0 0 0 0 0 0 0 
0 0 0 0 0 0 0 0 0 
0 0 0 0 0 0 0 0 0 
0 0 0 0 0 0 0 0 0 
0 0 0 0 0 0 0 0 0 
0 0 0 0 0 0 0 0 0 
0 0 0 0 0 0 0 0 0 
0 0 0 0 0 0 0 0 0 
0 0 0 0 0 0 0 0 0 
0 0 0 0 0 0 0 0 0 
0 0 0 0 0 0 0 0 0 
0 0 0 0 0 0 0 0 0 
0 0 0 0 0 0 0 0 0 
0 0 0 0 0 0 0 0 0 
0 0 0 0 0 0 0 0 0 
0 0 0 0 0 0 0 0 0 
0 0 0 0 0 0 0 0 0 
0 0 0 0 0 0 0 0 0 
0 0 0 0 0 0 0 0 0 
0 0 0 0 0 0 0 0 0 
0 0 0 0 0 0 0 0 0 
0 0 0 0 0 0 0 0 0 
0 0 0 0 0 0 0 0 0 
0 0 0 0 0 0 0 0 0 
0 0 0 0 0 0 0 0 0 
0 0 0 0 0 0 0 0 0 
0 0 0 0 0 0 0 0 0 
0 0 0 0 0 0 0 0 0 
0 0 0 0 0 0 0 0 0 
0 0 0 0 0 0 0 0 0 
0 0 0 0 0 0 0 0 0 
0 0 0 0 0 0 0 0 0 
0 0 0 0 0 0 0 0 0 
0 0 0 0 0 0 0 0 0 
0 0 0 0 0 0 0 0 0 
0 0 0 0 0 0 0 0 0 
0 0 0 0 0 0 0 0 0 
0 0 0 0 0 0 0 0 0 
0 0 0 0 0 0 0 0 0 
0 0 0 0 0 0 0 0 0 
0 0 0 0 0 0 0 0 0 
0 0 0 0 0 0 0 0 0 
0 0 0 0 0 0 0 0 0 
0 0 0 0 0 0 0 0 0 
0 0 0 0 0 0 0 0 0 
0 0 0 0 0 0 0 0 0 
0 0 0 0 0 0 0 0 0 
0 0 0 0 0 0 0 0 0 
0 0 0 0 0 0 0 0 0 
0 0 0 0 0 0 0 0 0 
0 0 0 0 0 0 0 0 0 
0 0 0 0 0 0 0 0 0 
0 0 0 0 0 0 0 0 0 
0 0 0 0 0 0 0 0 0 
0 0 0 0 0 0 0 0 0 
0 0 0 0 0 0 0 0 0 
0 0 0 0 0 0 0 0 0 
0 0 0 0 0 0 0 0 0 
0 0 0 0 0 0 0 0 0 
0 0 0 0 0 0 0 0 0 
0 0 0 0 0 0 0 0 0 
0 0 0 0 0 0 0 0 0 
0 0 0 0 0 0 0 0 0 
0 0 0 0 0 0 0 0 0 
0 0 0 0 0 0 0 0 0 
0 0 0 0 0 0 0 0 0 
0 0 0 0 0 0 0 0 0 
0 0 0 0 0 0 0 0 0 
0 0 0 0 0 0 0 0 0 
0 0 0 0 0 0 0 0 0 
0 0 0 0 0 0 0 0 0 
0 0 0 0 0 0 0 0 0 
0 0 0 0 0 0 0 0 0 
0 0 0 0 0 0 0 0 0 
0 0 0 0 0 0 0 0 0 
0 0 0 0 0 0 0 0 0 
0 0 0 0 0 0 0 0 0 
0 0 0 0 0 0 0 0 0 
0 0 0 0 0 0 0 0 0 
0 0 0 0 0 0 0 0 0 
0 0 0 0 0 0 0 0 0 
0 0 0 0 0 0 0 0 0 
0 0 0 0 0 0 0 0 0 
0 0 0 0 0 0 0 0 0 
0 0 0 0 0 0 0 0 0 
0 0 0 0 0 0 0 0 0 
0 0 0 0 0 0 0 0 0 
0 0 0 0 0 0 0 0 0 
0 0 0 0 0 0 0 0 0 
0 0 0 0 0 0 0 0 0 
0 0 0 0 0 0 0 0 0 
0 0 0 0 0 0 0 0 0 
0 0 0 0 0 0 0 0 0 
0 0 0 0 0 0 0 0 0 
0 0 0 0 0 0 0 0 0 
0 0 0 0 0 0 0 0 0 
0 0 0 0 0 0 0 0 0 
0 0 0 0 0 0 0 0 0 
0 0 0 0 0 0 0 0 0 
0 0 0 0 0 0 0 0 0 
0 0 0 0 0 0 0 0 0 
0 0 0 0 0 0 0 0 0 
0 0 0 0 0 0 0 0 0 
0 0 0 0 0 0 0 0 0 
0 0 0 0 0 0 0 0 0 
0 0 0 0 0 0 0 0 0 
0 0 0 0 0 0 0 0 0 
0 0 0 0 0 0 0 0 0 
0 0 0 0 0 0 0 0 0 
0 0 0 0 0 0 0 0 0 
0 0 0 0 0 0 0 0 0 
0 0 0 0 0 0 0 0 0 
0 0 0 0 0 0 0 0 0 
0 0 0 0 0 0 0 0 0 
0 0 0 0 0 0 0 0 0 
0 0 0 0 0 0 0 0 0 
0 0 0 0 0 0 0 0 0 
0 0 0 0 0 0 0 0 0 
0 0 0 0 0 0 0 0 0 
0 0 0 0 0 0 0 0 0 
0 0 0 0 0 0 0 0 0 
0 0 0 0 0 0 0 0 0 
0 0 0 0 0 0 0 0 0 
0 0 0 0 0 0 0 0 0 
0 0 0 0 0 0 0 0 0 
0 0 0 0 0 0 0 0 0 
0 0 0 0 0 0 0 0 0 
0 0 0 0 0 0 0 0 0 
0 0 0 0 0 0 0 0 0 
0 0 0 0 0 0 0 0 0 
0 0 0 0 0 0 0 0 0 
0 0 0 0 0 0 0 0 0 
0 0 0 0 0 0 0 0 0 
0 0 0 
v 3 538 double
0.0036221 -0.0310582 3.14574e-05 -0.00143793 -0.000686109 -2.90798e-12 0.00219678 -0.000514995 5.06175e-05 
0.00875916 0.000990623 0.000984748 -0.000289307 -0.00128216 -0.000182967 0.00712162 -0.000670767 0.000589508 
-0.0077249 4.23664e-05 0.00479648 0.00155446 9.65823e-05 -3.19914e-12 -0.00032365 -0.00018748 -9.21649e-05 
6.60381e-05 -0.000901988 0.000936734 -0.00132568 0.000456219 5.60233e-13 0.0109556 -0.0028741 1.08648e-11 
0.000149 -0.0016152 -0.00112003 0.00035215 -0.000587819 2.2914e-05 -0.00021195 -0.000390502 0.000679685 
-0.00248798 0.00119812 -0.000239398 0.000203318 -0.000218518 0.00104524 0.000303828 -0.000232515 -2.29418e-05 
-0.00257571 -0.00658516 5.0398e-12 0.00846778 0.00811925 0.0035651 0.00758079 7.81953e-05 0.00162573 
0.000855888 -0.0019092 0.00440882 0.0123112 0.119191 0.0420162 0.00263613 -0.000611556 0.000852773 
-0.00381766 -0.0303863 -2.07804e-05 -0.000200412 0.000177003 0.000296637 -0.033005 0.0267447 -0.00690219 
-0.0237511 0.0591673 -0.040256 -0.00310257 -0.000103042 0.00959996 0.00252438 -3.89642e-05 0.0023198 
-0.000120068 -0.000370483 -0.00010434 0.00912327 -0.0301986 -0.000710162 -0.0488881 -0.015112 -0.0160667 
-0.00871462 -0.0257634 0.0165703 -0.0208591 -0.0266569 2.29773e-07 -0.00139768 0.000368341 0.000102637 
0.0032163 0.00194004 -6.2841e-05 0.0132837 0.00255632 -0.000120396 0.00949925 0.00561641 -1.14083e-05 
0.0104069 0.000110686 4.02068e-05 2.98355e-06 6.95211e-05 4.00581e-05 -0.00051864 0.000741616 0.00137612 
0.0119658 0.00454749 0.000502368 0.00522012 0.000200798 0.000117917 -0.0201906 0.0172757 5.53839e-12 
0.0047451 0.000276386 0.000208873 0.00497102 0.000789231 -0.000171397 0.000138478 0.00486853 -4.22457e-05 
0.0974861 -0.0541239 -0.0437594 0.0803531 -0.101753 7.3591e-10 0.0029922 0.0060504 0.00125728 
0.00796144 -0.00199908 -6.4994e-05 0.0229719 -0.00247885 -4.75542e-07 9.09008e-05 -0.000976158 0.000479292 
3.45439e-05 0.00733721 0.000129211 8.84805e-05 0.00602004 0.0019541 0.00796947 -0.00726521 0.0104586 
0.0114214 0.000396568 0.000193552 0.00152037 1.95124e-05 0.00153959 -0.0215357 -0.0258484 -5.89715e-05 
0.00170199 -1.1424e-05 0.00174508 0.0247776 -0.0178696 -0.00022245 -0.0438748 0.00773859 -0.00025722 
-0.0123984 -0.0212161 -5.13095e-05 -0.00265993 -0.00255658 0.000306341 -0.00750914 0.00133551 -9.82377e-05 
0.00664402 -0.00572784 -9.21377e-05 -0.000465216 0.0056378 -0.000195294 -0.00111274 -0.00411835 -8.43927e-05 
0.00331269 -0.00361568 8.414e-05 0.0177584 -0.037904 -4.93783e-07 0.000151082 -0.00272007 0.000611626 
0.00064163 0.0314854 -0.000185275 0.00592814 -0.00552391 0.000205856 -0.00690429 0.0216354 -0.0114135 
0.00224799 -0.00318938 -0.000359634 -0.0071466 0.0198681 0.0162235 6.46447e-05 0.0193137 -0.0169159 
-0.110895 -0.0301876 -0.0303398 0.00502479 -0.0166362 -0.00129812 0.119421 -0.0171166 -0.00109222 
-0.028386 0.0206697 0.0106227 -0.0332411 -0.00939489 -0.0114771 -0.036216 0.206372 0.0487986 
0.0379317 -0.0588409 1.62698e-12 -0.0196244 0.00168409 0.00343795 -0.000642549 -0.0690805 1.68197e-05 
0.000496061 -0.0495613 -0.760901 0.000331722 0.0144117 0.00323559 -0.00318076 -0.0392078 0.00801376 
0.274584 0.271634 -0.0069741 -0.0356991 -0.112221 0.000379572 0.0459409 -0.0736003 -0.040076 
-0.00712169 0.0175311 0.000212724 0.0127255 -0.038439 0.000120815 -0.0343865 -0.00349036 -0.000153766 
-0.0392367 -0.00249327 0.000776335 0.056636 0.026497 -9.7619e-06 -0.0995671 0.047881 -0.000420503 
-0.0346902 0.0712082 -0.000375312 0.00496592 0.011447 -4.76659e-05 0.0187815 0.000904567 -0.000257322 
-0.000235959 0.0300338 1.18553e-12 -0.00818049 0.0514165 -1.54535e-05 0.00629246 -0.0189878 -0.0106978 
-0.0413907 0.0700057 0.000130245 0.0178616 -0.0282043 -4.97514e-05 -0.014362 0.289264 -0.204755 
0.00228186 -0.0207896 -3.92939e-05 -0.00665096 -0.0344577 -0.00160397 -0.0740803 0.0272273 -0.00942009 
-0.00577905 -0.0322216 -0.134678 0.0223107 -0.0329001 -0.0095349 0.0659409 0.20161 -0.403447 
0.0521466 -0.0629877 -0.0268387 -0.00195615 -0.0421332 0.000842012 -0.00164667 0.0415812 0.00126153 
-0.0168247 0.0184772 -0.00251949 0.0123362 -0.00383991 4.21441e-05 -0.00442381 -0.0349441 0.0145744 
0.000192454 -0.0359982 -0.000199792 0.0139693 -0.0195589 -0.00090093 0.0113734 -0.00360463 -0.000463959 
0.019054 -0.0956568 -1.15296e-11 0.000155291 0.0249925 -0.00029279 0.0105974 0.00256263 -0.000167632 
-0.0138648 -0.0170232 -0.00316092 -0.000163559 0.0238939 0.000355384 0.00745395 0.0298433 7.77834e-05 
0.0268787 0.00146011 0.00118136 0.0242268 -0.0168281 -0.000722865 0.0244058 -0.0152196 1.31388e-06 
-0.0401014 -0.0432234 -0.0260447 -0.00423494 -0.0242151 5.75064e-12 0.000213164 0.0257319 2.73628e-05 
0.0441801 -0.0165038 0.0130561 -0.0132498 -0.0129653 0.00470952 0.0253299 -0.00912598 3.09106e-05 
0.0164382 0.00187277 0.000200137 0.0231428 -0.0191902 -0.000315849 -0.0214766 -0.0168755 -0.0155665 
-8.68728e-06 0.0663478 -0.0171072 0.694671 -0.10888 -0.587791 -0.00426778 0.0189172 -0.0794838 
-0.0548454 0.121434 -0.0102702 0.284251 0.163095 -0.120806 0.0129182 -0.0268592 0.0027347 
0.00980226 -0.00665282 0.00138956 -0.0352606 -0.0206957 -0.00343821 0.0606001 -0.193773 -0.00225704 
0.0785793 -0.0147958 6.24955e-12 0.00721353 0.187797 0.00218661 -0.0183563 -0.0571933 5.60766e-05 
-0.027782 0.000672355 -0.00209605 -0.0673273 -0.0177028 -0.0434188 -0.00760313 -0.0387799 -0.00656729 
-0.0387898 0.015934 -0.000151029 0.0770718 0.0011295 -0.00014205 -0.000298006 -0.0320637 0.000385665 
-0.000352052 -0.014517 3.70118e-12 -0.00354189 -0.00881137 -0.000296123 0.0438699 0.0149527 0.00022989 
-0.172067 -0.10978 0.00210129 0.00313986 0.0617591 -1.44989e-06 -0.188667 -0.0581091 -4.10369e-05 
-0.0434647 0.00838994 -0.000723494 -0.00037675 -0.0147286 6.22669e-12 -0.0119084 0.0609918 -0.00466644 
-0.0446621 -0.0099593 -1.69391e-05 -0.204659 -0.094733 -1.28133e-12 -0.0528029 0.00704181 -0.000123898 
-0.00129619 0.0287101 -3.41093e-05 0.100791 0.332181 -0.169953 -0.00117109 0.0995367 0.145699 
0.0405548 -0.000555361 -0.000752656 -0.00362944 0.0137077 -0.0294307 -0.414501 0.0321435 -0.100486 
-0.0850476 0.0022657 0.00484857 -0.0112736 0.0999449 -0.102165 0.0023015 0.0511172 0.00584398 
0.00047571 0.025009 -0.00182338 -0.00771693 -0.0150842 -0.000827541 0.00771173 -0.0141839 -0.000343774 
0.00557662 -0.00108914 4.78793e-05 0.0856192 0.042451 0.000193175 0.00376466 0.0732558 -0.00193166 
0.0128475 -0.0249695 -0.00113067 2.28071e-05 -0.0471116 -0.000302117 0.00166013 -0.0225002 2.486e-05 
0.0875566 0.0368267 8.84498e-06 0.0251186 -0.0177308 0.000139207 -0.000975505 -0.17235 5.51978e-05 
-0.110112 -0.0363722 5.98437e-06 0.00270595 0.023748 -0.107348 0.015327 -0.0970943 -0.0526106 
0.065508 0.0687518 0.00102817 0.194918 -0.491568 0.249735 0.071218 0.0424836 0.0468573 
0.0181665 0.0308261 0.0234046 0.00253013 -0.0375376 0.00919307 0.00479049 -0.107142 1.19389e-11 
-0.00190413 0.066247 -0.0439027 -0.505566 -0.0315449 -0.147636 0.0162085 0.0102018 0.00314805 
0.0931366 -0.126112 -0.10466 0.00100018 0.0112234 -0.03493 0.0940546 -0.18496 -0.0832293 
0.0141915 -0.0890228 -0.000132513 0.0723708 0.0374742 -0.006327 0.0596024 0.0499686 -0.00109797 
-0.00180121 -0.0891556 0.000709571 -0.00138203 0.0928165 -0.0292455 -0.233668 0.349967 -0.209266 
0.03232 -0.0337933 -1.40536e-11 0.00371209 0.0273832 9.20016e-05 0.0222156 -0.00530635 2.25731e-05 
-0.104627 -0.0472971 0.000103304 0.00207958 -0.147372 -0.0145841 -0.0377568 0.0040462 -0.102484 
-0.0687755 -0.0586789 0.0301088 -0.0956349 -0.0260987 -0.000138054 0.0314252 -0.0236335 -0.000429513 
0.00134015 0.000326265 -0.000252723 0.00885709 -0.111687 4.35869e-05 0.00473532 -0.00606724 0.000161334 
0.0135157 0.0397042 -0.000208262 -6.86667e-05 0.0033499 7.42429e-05 0.0777956 0.00751458 1.37168e-11 
-0.00254104 -0.00354473 -0.000144428 0.000893641 -0.0577859 0.000106402 -0.000343212 0.0466056 -9.2029e-12 
0.0487551 -0.0322034 -0.0824426 0.0386642 0.0160422 0.019993 -0.0723935 -0.105666 0.0422606 
-0.0390923 -0.0190053 -1.70309e-06 -0.0125445 0.0453309 -1.01072e-11 -0.0259329 0.0173031 -3.20941e-06 
-0.152296 0.102724 -0.617795 0.0985683 0.0128376 0.000138857 -0.00500689 -0.0186429 -0.000780724 
0.212532 -0.120518 -0.0108587 0.457022 0.409992 -0.399454 0.0210286 0.0595662 -0.000387408 
-6.68916e-06 0.00335581 0.000131933 -0.000337278 0.0442225 -0.0334966 -0.00891939 0.0788957 0.00362175 
0.000982223 0.0452661 -0.000650959 -0.00787382 -0.0232251 0.0236484 0.000193578 0.0450549 0.000298343 
0.00705835 0.0269248 -1.15296e-11 -0.000251732 0.0340433 0.000147854 0.0975231 0.0370437 7.27565e-05 
0.0212237 0.0110411 0.000231689 0.0313547 -0.0130346 0.000173048 0.0192938 0.0202724 6.08894e-05 
0.0261989 0.0241061 4.06968e-05 4.32346e-05 -0.0177108 0.000423045 -0.0192925 0.0499799 -1.24155e-11 
-7.23845e-05 -0.00984921 -0.000201666 0.0384216 -0.0167594 0.000237053 0.0124359 0.0835412 0.00522922 
0.0147171 -0.03734 1.1809e-11 0.0182253 -0.000641533 0.00355104 0.00661937 -0.0134266 -0.0167567 
0.0293817 -0.00698569 -0.0125696 -0.0519588 -0.00578666 -2.73729e-05 0.0121931 0.014262 0.00385287 
0.0693233 -0.0125464 -0.0295072 -0.0569639 -0.00809897 1.95292e-05 0.00363299 0.0404326 0.000565627 
0.00350862 -0.0122218 -0.00172083 0.00945115 -0.0211182 0.000506075 0.00512783 0.000763383 -6.45783e-12 
0.00438459 0.00438884 0.0100649 0.0576203 0.0664723 -0.0544585 0.0363696 -0.0248524 -9.57195e-12 
-0.000146429 0.00250235 -0.000213454 0.0101092 0.0415999 0.000219647 0.250982 -0.0971834 -0.000580103 
0.00226396 0.0133592 -0.00065072 0.0105609 0.0221495 1.21548e-05 -0.00266237 0.0191773 4.64376e-06 
-3.41007e-05 -0.0269534 5.43101e-12 -0.0407951 -0.0798067 -0.000659213 0.213461 0.0569977 3.94799e-08 
0.0224931 0.0025329 -0.00015065 0.000221771 0.00171033 4.04539e-05 -0.0374138 -0.0259425 0.000186573 
0.0204258 -0.0092475 0.0130086 -0.0992081 -0.182796 -0.227364 0.0579104 -0.0258497 -0.000164445 
-0.0545495 -0.0819973 1.51746e-06 0.000613991 -0.0164 0.0329544 0.161615 -0.5923 -0.300771 
0.0798553 -0.137129 -0.25225 -0.000233603 -0.0190292 -0.00924384 -0.00221625 -0.0288371 -0.0210212 
0.0333828 0.0126731 -0.000417383 0.160466 0.510437 -0.176082 0.0493976 -0.0203315 0.00084613 
0.0235948 -0.0146549 0.000123374 -0.0304819 0.10282 -0.0401838 0.00707022 -0.0145039 -0.00900889 
0.0311242 -0.0141769 -0.0163152 -0.0496667 -0.0207642 0.00163447 0.0677728 0.0430696 0.000197829 
-0.0206106 -0.0449857 0.0203607 0.000110349 -0.0137815 -0.00153915 0.00833246 -0.014696 -0.00809713 
0.00393046 0.00629121 0.00106938 -0.000100111 -0.0129398 -0.000222541 0.00583209 -0.00626183 -0.000136397 
0.00523 -0.0106378 -0.000170434 0.0256052 0.0345947 3.4053e-05 0.0157558 0.00161473 -0.000121276 
0.0160202 -0.0146337 -0.000114425 0.0229324 0.00238812 -2.98821e-05 0.0129283 -0.049705 -0.000105423 
0.0205691 -0.0154381 -0.000151494 0.0428032 0.00274606 1.70127e-05 0.0173378 -0.0256732 -0.00125364 
-0.0670629 0.0420851 -0.0136955 0.00317632 -0.0171141 6.21254e-05 5.92347e-05 -0.0155514 -0.00373978 
0.289401 -0.138399 -0.12062 -0.0161799 -0.000826927 0.00420969 -0.0109542 -0.00960807 -0.0299518 
0.0865634 0.0106314 4.85059e-12 -0.00399732 0.0257969 -5.21088e-05 0.000143216 -0.0503866 -0.00389252 
0.0261198 0.0243516 -0.00110716 0.0700064 0.0118416 -0.0477089 0.0277676 0.0104425 -3.39941e-05 
0.0628363 0.0124953 -0.0103146 0.0609296 -0.0648142 1.89958e-05 0.0336144 -0.00606595 4.0013e-06 
-0.0087497 -0.0467348 0.00016614 0.00341452 -0.0630456 -9.45223e-06 0.0229997 -0.0350815 0.000265885 
-0.0199697 -0.0202213 -4.66343e-12 0.0540802 0.0141513 0.000193405 0.0628006 -0.0199349 0.00444995 
0.000239059 -0.0495774 2.57553e-05 -6.42454e-05 -0.0601631 6.70955e-12 0.0743136 0.00255412 0.000546363 
-0.00186461 -0.0890417 1.44614e-06 0.0734868 -0.00361043 0.000325046 -0.0167664 -0.0456091 0.019629 
-3.19521e-05 -0.0166272 -5.81411e-05 -0.0913638 -0.00184746 0.0017358 0.0282644 0.0100541 -0.000320138 
-0.00362939 -0.0137986 0.0153691 -0.0816105 -0.0345063 0.0134969 0.00233653 -0.0335354 0.0632124 
-0.143458 -0.00447669 -0.185345 -0.0415948 0.00717124 -0.0145329 0.0023052 -0.0442183 0.0403306 
0.00216619 0.17992 0.0165728 -0.00296678 -0.0320649 0.0315107 -0.123294 0.069472 0.000780641 
-0.0284088 -0.00216767 -0.0126369 -0.00752506 0.118263 0.0800506 -0.0789032 0.0650723 -0.056265 
0.00324195 -0.083399 0.000913253 -0.0387584 -0.0136409 -4.99525e-05 -0.00754819 -0.00789373 -0.000180448 
-0.0267287 -0.00262537 -0.0146032 -0.0630277 0.0636432 0.000171364 0.0951715 -0.0945603 -0.00100218 
-0.000671784 0.0060184 -0.00015968 -0.0516087 0.0532162 3.47545e-10 -0.0177955 -0.0106472 -0.00056651 
-1.18554e-06 -0.00488531 0.000371325 -0.0812013 0.0409321 0.000510314 7.35338e-05 0.000783802 9.38113e-12 
-0.00845829 0.0821633 -0.00229179 0.0211161 -0.0213238 0.00368615 0.00443087 -0.0102502 1.54948e-11 
-0.0244151 -0.019961 -0.000199137 0.00753927 -0.111219 0.0078778 -0.00911833 -0.0564305 -0.00175711 
-0.000744163 -0.00467199 0.0047833 0.00993942 -0.075746 -0.0518144 0.0217927 -0.0477767 0.00731492 
0.000667378 -0.0412592 0.0106616 0.000994734 -0.00446624 0.000144327 0.00234571 -0.00417026 0.0107964 
-0.00360291 -0.0173838 -0.00625256 -0.05996 0.0482787 0.0235476 0.0104424 0.00285737 0.0107747 
0.00631083 -0.00809553 0.00685284 -0.0157378 -0.0216258 0.000246804 -0.00573025 -0.0140468 -0.0103958 