# vtk DataFile Version 4.0
Generated by LIGGGHTS
ASCII
DATASET POLYDATA
POINTS 538 float
0.0101349 0.00474159 0.0116574 0.00391715 0.00438949 0.0108754 0.0063394 0.00214199 0.0121393 
0.00300132 0.00661785 0.0116573 0.000677983 0.00749815 0.010678 0.00676243 0.00641826 0.0121393 
0.00216282 0.00344779 0.0106779 0.00416783 0.000770714 0.0107705 0.000773561 0.0060558 0.0107704 
0.00216106 0.00145877 0.0114587 0.00545802 0.00438386 0.010678 0.00384413 0.00274851 0.0107705 
0.00795627 0.00413734 0.0107705 0.000770453 0.00305952 0.0107704 0.000770469 0.00077048 0.0130594 
0.00115493 0.00455176 0.0107704 0.00234764 0.00099448 0.0138604 0.000875417 0.00315903 0.0124101 
0.00250346 0.00469252 0.0105965 0.00249348 0.00407105 0.0121941 0.00431796 0.00451666 0.0131872 
0.00885101 0.00503925 0.0138204 0.000994431 0.00643367 0.013381 0.00343409 0.00258513 0.0132277 
0.00983778 0.00164584 0.0114587 0.000770489 0.00525468 0.0120868 0.0101798 0.00743753 0.0125465 
0.00320039 0.00591991 0.0140841 0.00877373 0.000875472 0.0133883 0.0107271 0.000994478 0.0136504 
0.000770495 0.00446311 0.0134089 0.00941576 0.00709088 0.0108754 0.0114296 0.00686349 0.0138182 
0.0120446 0.00581355 0.0127057 0.0120677 0.00591915 0.0107705 0.012551 0.00128396 0.0112839 
0.0151772 0.00614781 0.01113 0.02253 0.00368366 0.0114587 0.0164936 0.00394297 0.0114588 
0.0191181 0.00472056 0.0112839 0.0228699 0.00113009 0.01113 0.0144739 0.000771117 0.0107705 
0.0159481 0.00189397 0.0107704 0.0208877 0.000875499 0.0108754 0.0216375 0.00546123 0.0106779 
0.0167301 0.0006782 0.010678 0.0186096 0.00166055 0.0116574 0.0228669 0.00789902 0.01113 
0.015876 0.00773977 0.0128047 0.0172375 0.00607767 0.0108755 0.0228321 0.00637007 0.0127941 
0.0133833 0.00408038 0.0116574 0.019818 0.00737563 0.0114587 0.0230055 0.00192075 0.0130973 
0.0231245 0.00586481 0.0108754 0.0230055 0.00395815 0.0138498 0.0209838 0.00545338 0.0120872 
0.0149878 0.00164901 0.0127672 0.0214577 0.000875482 0.012531 0.0128753 0.00819571 0.011883 
0.0200642 0.000994491 0.0137723 0.00885495 0.00906948 0.0115342 0.00472118 0.0121187 0.0112839 
0.00788134 0.0144455 0.0121393 0.00627573 0.00877748 0.010678 0.00415331 0.0149806 0.0116573 
0.0109207 0.0108731 0.0114587 0.0043864 0.00940188 0.0114588 0.00113006 0.0118692 0.01113 
0.00146791 0.00932362 0.0114587 0.00805406 0.0120428 0.010678 0.000770485 0.013714 0.0107704 
0.00182811 0.0156114 0.0108754 0.00945317 0.0124148 0.0107705 0.00113014 0.0145598 0.012434 
0.00683105 0.0106316 0.0112832 0.0106492 0.010666 0.0137679 0.000677985 0.0128172 0.0126018 
0.00405852 0.0110898 0.0132085 0.00866536 0.0112203 0.0129801 0.0108161 0.0135136 0.0109944 
0.00259901 0.0128435 0.0125446 0.00618829 0.0119595 0.0130198 0.00268213 0.0161094 0.0137387 
0.0104708 0.00835861 0.010678 0.00454091 0.0130108 0.0133901 0.0106063 0.0154916 0.0109944 
0.000524961 0.0157598 0.0113664 0.000770489 0.0160619 0.013573 0.0120129 0.0155567 0.0135361 
0.0159784 0.00911297 0.0140853 0.0154611 0.00909902 0.0109944 0.0157161 0.0100126 0.0127996 
0.0172854 0.0153894 0.0112839 0.0139403 0.0116171 0.0116574 0.0207739 0.0110666 0.0109944 
0.0154408 0.0164798 0.0108755 0.0174741 0.00842469 0.01113 0.0225409 0.012706 0.0114587 
0.0187592 0.0103506 0.010678 0.0211092 0.00923079 0.0108755 0.0166028 0.010982 0.01113 
0.0228698 0.0101592 0.01113 0.0203934 0.0152803 0.011883 0.0158761 0.0145372 0.0126806 
0.0187382 0.0124082 0.0114587 0.0161093 0.0132868 0.01113 0.0230055 0.0132439 0.0138068 
0.0125013 0.0104902 0.0135789 0.0141987 0.0159932 0.013756 0.0207159 0.0115824 0.0134384 
0.0231245 0.014898 0.0120095 0.0145021 0.0135603 0.0135822 0.0232295 0.0149876 0.0136497 
0.0141922 0.00965111 0.0138213 0.0135931 0.014933 0.0116573 0.0230046 0.0164638 0.0109944 
0.00149086 0.0166953 0.0122354 0.00602094 0.0167677 0.0109944 0.010155 0.0169577 0.0133505 
0.000770443 0.0169044 0.0107704 0.00620486 0.0242145 0.0114587 0.00304892 0.0196472 0.0109944 
0.00824821 0.0247413 0.010678 0.00128523 0.0211496 0.0112839 0.00697873 0.0212658 0.0108754 
0.00427363 0.0222747 0.0112839 0.00113017 0.0187443 0.01113 0.00244404 0.0172505 0.0108755 
0.00515178 0.0200314 0.01113 0.0098324 0.0203407 0.0107705 0.0103815 0.0187925 0.0108755 
0.00371784 0.023396 0.0135261 0.00902689 0.0167558 0.0107705 0.000770984 0.0231643 0.0107704 
0.00604009 0.0214735 0.0124793 0.00312846 0.020813 0.0126042 0.00781376 0.0188374 0.011883 
0.00425023 0.0179136 0.0118573 0.00914248 0.0226489 0.011883 0.00495578 0.0197498 0.0135215 
0.00101929 0.0237961 0.0123996 0.00421585 0.0178258 0.0139096 0.00496841 0.0217973 0.0138438 
0.00557876 0.0229663 0.0130761 0.00854335 0.0238711 0.0140525 0.00794463 0.0248768 0.0126852 
0.0110646 0.0245975 0.0109944 0.00295579 0.0244786 0.0112839 0.0101134 0.0248249 0.0137274 
0.0114071 0.0229552 0.010678 0.00087542 0.0248888 0.0108754 0.0119189 0.0173313 0.0112838 
0.0159239 0.0167767 0.0129619 0.0125478 0.0185743 0.0127939 0.0132733 0.0170888 0.0129482 
0.0172504 0.0177993 0.01113 0.0146737 0.022245 0.0109944 0.0148075 0.0243452 0.0109944 
0.0231242 0.0228433 0.0108755 0.0194247 0.0188368 0.0112839 0.0120708 0.0202946 0.0114587 
0.0159524 0.0232179 0.0123845 0.0182381 0.021789 0.0107704 0.0177929 0.0236013 0.01113 
0.018776 0.0169405 0.010678 0.023338 0.021411 0.0105965 0.0223404 0.0189441 0.0116574 
0.0143986 0.0184903 0.0114587 0.016538 0.0219088 0.0107705 0.0163087 0.0194104 0.0107702 
0.0206342 0.0220383 0.011883 0.0144799 0.0207828 0.0123287 0.0231245 0.0168364 0.0128229 
0.0141949 0.0205087 0.010678 0.0173347 0.0205495 0.0129358 0.0152824 0.0220469 0.0137232 
0.0174633 0.0248285 0.0127273 0.0183452 0.0232351 0.0131512 0.0231246 0.0211366 0.0126542 
0.0230056 0.0230543 0.0131578 0.0093815 0.0265423 0.0116573 0.00947046 0.0288006 0.0107704 
0.00748128 0.0288169 0.0112839 0.0084975 0.032348 0.01113 0.00128395 0.0317538 0.0112839 
0.00324939 0.0274975 0.0112839 0.000994428 0.0276689 0.0109943 0.00509777 0.0289303 0.0108754 
0.00583323 0.0312246 0.0116574 0.00575622 0.0269147 0.0112839 0.0106794 0.0317565 0.0111298 
0.00920461 0.0304216 0.0108754 0.00166632 0.0293486 0.0129333 0.00420448 0.0258709 0.0130436 
0.00342757 0.0297628 0.0109944 0.00417799 0.0302875 0.0136951 0.00151564 0.0261058 0.0123354 
0.00323385 0.0312018 0.0121727 0.00710246 0.026593 0.0132616 0.00736504 0.025867 0.010678 
0.000770459 0.0272201 0.0136826 0.00216191 0.0317786 0.0128653 0.00335936 0.0326483 0.0109944 
0.00850651 0.0284117 0.0131408 0.000596486 0.031332 0.0129826 0.0118105 0.0316704 0.0132606 
0.0116958 0.0291956 0.0116574 0.00720702 0.0331544 0.0122689 0.00685775 0.0332391 0.0107704 
0.011607 0.0269371 0.0107705 0.000875465 0.033267 0.0127693 0.0185431 0.0252888 0.0137447 
0.0120377 0.0310296 0.0105249 0.0223349 0.0251356 0.0116574 0.0128372 0.0255487 0.0109944 
0.0167627 0.0258179 0.0111299 0.0120538 0.0265474 0.0128866 0.0204703 0.0261508 0.0126306 
0.0152513 0.0254317 0.0127653 0.0191607 0.0255844 0.0112839 0.0146414 0.0265508 0.0109944 
0.0161637 0.0278516 0.0109944 0.0185246 0.0282012 0.0112839 0.0144303 0.0290724 0.01113 
0.0127574 0.0322826 0.0109944 0.0225412 0.0315187 0.0114587 0.0200979 0.0271978 0.0106778 
0.0150574 0.0315662 0.0114587 0.0196474 0.0311293 0.0114587 0.0234035 0.0268128 0.0105965 
0.0162833 0.0294727 0.0123623 0.013147 0.0274627 0.0107705 0.0181462 0.0298319 0.0124749 
0.0170445 0.0316556 0.010678 0.0233221 0.028082 0.0106779 0.0214752 0.0284956 0.0124033 
0.0132876 0.0307604 0.0123444 0.0174372 0.0301656 0.0108754 0.0167478 0.0313581 0.0132244 
0.0138356 0.0261331 0.0138216 0.0185294 0.0319113 0.0133528 0.0196808 0.0332495 0.0107704 
0.023322 0.0332162 0.0124955 0.0232295 0.0267069 0.0132778 0.000994472 0.0339953 0.0109944 
0.000875468 0.0359877 0.0108754 0.00272203 0.0342789 0.0107704 0.00087547 0.0377386 0.0108754 
0.00602167 0.035352 0.010678 0.0116273 0.0406228 0.0121393 0.00792882 0.0347673 0.01113 
0.00694565 0.0373218 0.0116574 0.00379494 0.0362682 0.0116573 0.00679672 0.0406334 0.0116573 
0.00938828 0.0363877 0.0109944 0.00395314 0.0393741 0.0114587 0.00936052 0.038564 0.0109944 
0.00128399 0.0399841 0.0112839 0.00509833 0.0338613 0.01113 0.00128398 0.0353829 0.0129077 
0.0101191 0.0340062 0.012677 0.00494736 0.0380597 0.0134553 0.00492743 0.0403066 0.0136992 
0.00185999 0.0380416 0.0125962 0.00942761 0.0401034 0.0105965 0.00873779 0.0402123 0.0136132 
0.00460475 0.0359704 0.0140388 0.00922201 0.0413595 0.010678 0.0118985 0.0339394 0.0108755 
0.00279086 0.0408696 0.0132235 0.0173724 0.0339388 0.011883 0.0142487 0.0339132 0.0109944 
0.0211678 0.0335399 0.0116759 0.0133452 0.0385273 0.0134613 0.0180199 0.0368961 0.0109944 
0.0230055 0.0338825 0.0109944 0.0128773 0.0363136 0.011883 0.0150572 0.037969 0.0109944 
0.0141428 0.041139 0.0107705 0.01972 0.0390462 0.011883 0.0201434 0.0357585 0.0114587 
0.0232032 0.0400834 0.0107705 0.0156005 0.0360249 0.0109944 0.0173688 0.0385212 0.0107705 
0.0227159 0.0381052 0.0122981 0.0228699 0.0359983 0.01113 0.0179597 0.0409161 0.0108754 
0.0222415 0.0404785 0.0131563 0.0148269 0.0399417 0.0120802 0.0160907 0.0393821 0.0107704 
0.0160791 0.0415658 0.01113 0.0170278 0.0399492 0.0119991 0.0142538 0.0383294 0.0123195 
0.0142733 0.0415641 0.0129009 0.00576773 0.0493658 0.0122341 0.00323473 0.0492909 0.0138317 
0.00702748 0.0434811 0.0136772 0.00287354 0.0434232 0.0136868 0.00843903 0.0486137 0.0124705 
0.00581136 0.0477684 0.0127278 0.0105005 0.046656 0.0131322 0.00474611 0.0435395 0.0128496 
0.00665052 0.043721 0.0120931 0.00289146 0.0462162 0.0109944 0.010427 0.0478469 0.0114587 
0.00152503 0.0455223 0.0122622 0.000875464 0.0465958 0.0108754 0.00128393 0.0480458 0.0124226 
0.0037196 0.0444078 0.0109944 0.00077045 0.0449566 0.0107704 0.00716043 0.0493818 0.0110927 
0.00165745 0.0428778 0.0116573 0.0111171 0.0446047 0.011883 0.00833274 0.0454767 0.01113 
0.00577196 0.0456692 0.0114587 0.00797052 0.0475657 0.0109944 0.00382151 0.0484384 0.0114587 
0.00602043 0.0479157 0.0108754 0.00841882 0.0430585 0.0112839 0.00560298 0.0433619 0.0108754 
[...]
POINT_DATA 538
FIELD FieldData 7
id 1 538 int
1 2 3 4 5 6 7 8 9 
10 11 12 13 14 15 16 17 18 
19 20 21 22 24 25 26 29 31 
33 34 35 38 39 45 55 56 57 
58 59 60 61 62 63 64 65 66 
67 68 69 70 71 72 73 76 77 
80 81 82 85 90 95 96 106 107 
108 109 110 111 112 113 114 115 116 
117 118 119 120 121 122 124 126 128 
129 131 132 133 134 141 144 155 162 
163 164 165 166 167 168 169 170 171 
172 173 174 175 176 177 178 179 181 
184 187 190 191 192 194 197 198 200 
219 220 222 223 224 225 226 227 228 
229 230 231 232 233 234 235 236 237 
238 239 240 241 242 244 245 248 250 
251 254 262 264 265 270 273 275 276 
279 283 284 285 286 287 288 289 290 
291 292 293 294 295 296 297 298 299 
300 301 302 303 305 306 308 309 310 
317 330 331 332 333 334 335 336 337 
338 339 340 341 342 343 344 346 347 
348 349 351 353 357 359 362 366 368 
375 376 379 380 382 385 386 387 388 
389 390 391 392 393 394 395 396 397 
398 399 400 401 402 403 404 405 406 
408 409 410 411 413 415 416 417 418 
419 421 435 436 437 439 440 441 442 
443 444 445 446 447 448 449 450 451 
453 455 456 457 458 459 460 466 478 
479 497 498 499 500 501 502 503 504 
505 506 507 508 509 510 511 513 514 
515 516 517 522 523 524 535 486 487 
488 489 490 491 492 493 494 495 496 
512 518 519 520 521 525 526 527 528 
529 530 531 532 533 534 536 537 538 
438 452 454 461 462 463 464 465 467 
468 469 470 471 472 473 474 475 476 
477 480 481 482 483 484 485 355 356 
358 360 361 363 364 365 367 369 370 
371 372 373 374 377 378 381 383 384 
407 412 414 420 422 423 424 425 426 
427 428 429 430 431 432 433 434 266 
267 268 269 271 272 274 277 278 280 
281 282 304 307 311 312 313 314 315 
316 318 319 320 321 322 323 324 325 
326 327 328 329 345 350 352 354 207 
208 209 210 211 212 213 214 215 216 
217 218 221 243 246 247 249 252 253 
255 256 257 258 259 260 261 263 142 
143 145 146 147 148 149 150 151 152 
153 154 156 157 158 159 160 161 180 
182 183 185 186 188 189 193 195 196 
199 201 202 203 204 205 206 86 87 
88 89 91 92 93 94 97 98 99 
100 101 102 103 104 105 123 125 127 
130 135 136 137 138 139 140 23 27 
28 30 32 36 37 40 41 42 43 
44 46 47 48 49 50 51 52 53 
54 74 75 78 79 83 84 
type 1 538 int
1 1 1 1 1 1 1 1 1 
1 1 1 1 1 1 1 1 1 
1 1 1 1 1 1 1 1 1 
1 1 1 1 1 1 1 1 1 
1 1 1 1 1 1 1 1 1 
1 1 1 1 1 1 1 1 1 
1 1 1 1 1 1 1 1 1 
1 1 1 1 1 1 1 1 1 
1 1 1 1 1 1 1 1 1 
1 1 1 1 1 1 1 1 1 
1 1 1 1 1 1 1 1 1 
1 1 1 1 1 1 1 1 1 
1 1 1 1 1 1 1 1 1 
1 1 1 1 1 1 1 1 1 
1 1 1 1 1 1 1 1 1 
1 1 1 1 1 1 1 1 1 
1 1 1 1 1 1 1 1 1 
1 1 1 1 1 1 1 1 1 
1 1 1 1 1 1 1 1 1 
1 1 1 1 1 1 1 1 1 
1 1 1 1 1 1 1 1 1 
1 1 1 1 1 1 1 1 1 
1 1 1 1 1 1 1 1 1 
1 1 1 1 1 1 1 1 1 
1 1 1 1 1 1 1 1 1 
1 1 1 1 1 1 1 1 1 
1 1 1 1 1 1 1 1 1 
1 1 1 1 1 1 1 1 1 
1 1 1 1 1 1 1 1 1 
1 1 1 1 1 1 1 1 1 
1 1 1 1 1 1 1 1 1 
1 1 1 1 1 1 1 1 1 
1 1 1 1 1 1 1 1 1 
1 1 1 1 1 1 1 1 1 
1 1 1 1 1 1 1 1 1 
1 1 1 1 1 1 1 1 1 
1 1 1 1 1 1 1 1 1 
1 1 1 1 1 1 1 1 1 
1 1 1 1 1 1 1 1 1 
1 1 1 1 1 1 1 1 1 
1 1 1 1 1 1 1 1 1 
1 1 1 1 1 1 1 1 1 
1 1 1 1 1 1 1 1 1 
1 1 1 1 1 1 1 1 1 
1 1 1 1 1 1 1 1 1 
1 1 1 1 1 1 1 1 1 
1 1 1 1 1 1 1 1 1 
1 1 1 1 1 1 1 1 1 
1 1 1 1 1 1 1 1 1 
1 1 1 1 1 1 1 1 1 
1 1 1 1 1 1 1 1 1 
1 1 1 1 1 1 1 1 1 
1 1 1 1 1 1 1 1 1 
1 1 1 1 1 1 1 1 1 
1 1 1 1 1 1 1 1 1 
1 1 1 1 1 1 1 1 1 
1 1 1 1 1 1 1 1 1 
1 1 1 1 1 1 1 1 1 
1 1 1 1 1 1 1 1 1 
1 1 1 1 1 1 1 
i 3 538 int
0 0 0 0 0 0 0 0 0 
0 0 0 0 0 0 0 0 0 
0 0 0 0 0 0 0 0 0 
0 0 0 0 0 0 0 0 0 
0 0 0 0 0 0 0 0 0 
0 0 0 0 0 0 0 0 0 
0 0 0 0 0 0 0 0 0 
0 0 0 0 0 0 0 0 0 
0 0 0 0 0 0 0 0 0 
0 0 0 0 0 0 0 0 0 
0 0 0 0 0 0 0 0 0 
0 0 0 0 0 0 0 0 0 
0 0 0 0 0 0 0 0 0 
0 0 0 0 0 0 0 0 0 
0 0 0 0 0 0 0 0 0 
0 0 0 0 0 0 0 0 0 
0 0 0 0 0 0 0 0 0 
0 0 0 0 0 0 0 0 0 
0 0 0 0 0 0 0 0 0 
0 0 0 0 0 0 0 0 0 
0 0 0 0 0 0 0 0 0 
0 0 0 0 0 0 0 0 0 
0 0 0 0 0 0 0 0 0 
0 0 0 0 0 0 0 0 0 
0 0 0 0 0 0 0 0 0 
0 0 0 0 0 0 0 0 0 
0 0 0 0 0 0 0 0 0 
0 0 0 0 0 0 0 0 0 
0 0 0 0 0 0 0 0 0 
0 0 0 0 0 0 0 0 0 
0 0 0 0 0 0 0 0 0 
0 0 0 0 0 0 0 0 0 
0 0 0 0 0 0 0 0 0 
0 0 0 0 0 0 0 0 0 
0 0 0 0 0 0 0 0 0 
0 0 0 0 0 0 0 0 0 
0 0 0 0 0 0 0 0 0 
0 0 0 0 0 0 0 0 0 
0 0 0 0 0 0 0 0 0 
0 0 0 0 0 0 0 0 0 
0 0 0 0 0 0 0 0 0 
0 0 0 0 0 0 0 0 0 
0 0 0 0 0 0 0 0 0 
0 0 0 0 0 0 0 0 0 
0 0 0 0 0 0 0 0 0 
0 0 0 0 0 0 0 0 0 
0 0 0 0 0 0 0 0 0 
0 0 0 0 0 0 0 0 0 
0 0 0 0 0 0 0 0 0 
0 0 0 0 0 0 0 0 0 
0 0 0 0 0 0 0 0 0 
0 0 0 0 0 0 0 0 0 
0 0 0 0 0 0 0 0 0 
0 0 0 0 0 0 0 0 0 
0 0 0 0 0 0 0 0 0 
0 0 0 0 0 0 0 0 0 
0 0 0 0 0 0 0 0 0 
0 0 0 0 0 0 0 0 0 
0 0 0 0 0 0 0 0 0 
0 0 0 0 0 0 0 0 0 
0 0 0 0 0 0 0 0 0 
0 0 0 0 0 0 0 0 0 
0 0 0 0 0 0 0 0 0 
0 0 0 0 0 0 0 0 0 
0 0 0 0 0 0 0 0 0 
0 0 0 0 0 0 0 0 0 
0 0 0 0 0 0 0 0 0 
0 0 0 0 0 0 0 0 0 
0 0 0 0 0 0 0 0 0 
0 0 0 0 0 0 0 0 0 
0 0 0 0 0 0 0 0 0 
0 0 0 0 0 0 0 0 0 
0 0 0 0 0 0 0 0 0 
0 0 0 0 0 0 0 0 0 
0 0 0 0 0 0 0 0 0 
0 0 0 0 0 0 0 0 0 
0 0 0 0 0 0 0 0 0 
0 0 0 0 0 0 0 0 0 
0 0 0 0 0 0 0 0 0 
0 0 0 0 0 0 0 0 0 
0 0 0 0 0 0 0 0 0 
0 0 0 0 0 0 0 0 0 
0 0 0 0 0 0 0 0 0 
0 0 0 0 0 0 0 0 0 
0 0 0 0 0 0 0 0 0 
0 0 0 0 0 0 0 0 0 
0 0 0 0 0 0 0 0 0 
0 0 0 0 0 0 0 0 0 
0 0 0 0 0 0 0 0 0 
0 0 0 0 0 0 0 0 0 
0 0 0 0 0 0 0 0 0 
0 0 0 0 0 0 0 0 0 
0 0 0 0 0 0 0 0 0 
0 0 0 0 0 0 0 0 0 
0 0 0 0 0 0 0 0 0 
0 0 0 0 0 0 0 0 0 
0 0 0 0 0 0 0 0 0 
0 0 0 0 0 0 0 0 0 
0 0 0 0 0 0 0 0 0 
0 0 0 0 0 0 0 0 0 
0 0 0 0 0 0 0 0 0 
0 0 0 0 0 0 0 0 0 
0 0 0 0 0 0 0 0 0 
0 0 0 0 0 0 0 0 0 
0 0 0 0 0 0 0 0 0 
0 0 0 0 0 0 0 0 0 
0 0 0 0 0 0 0 0 0 
0 0 0 0 0 0 0 0 0 
0 0 0 0 0 0 0 0 0 
0 0 0 0 0 0 0 0 0 
0 0 0 0 0 0 0 0 0 
0 0 0 0 0 0 0 0 0 
0 0 0 0 0 0 0 0 0 
0 0 0 0 0 0 0 0 0 
0 0 0 0 0 0 0 0 0 
0 0 0 0 0 0 0 0 0 
0 0 0 0 0 0 0 0 0 
0 0 0 0 0 0 0 0 0 
0 0 0 0 0 0 0 0 0 
0 0 0 0 0 0 0 0 0 
0 0 0 0 0 0 0 0 0 
0 0 0 0 0 0 0 0 0 
0 0 0 0 0 0 0 0 0 
0 0 0 0 0 0 0 0 0 
0 0 0 0 0 0 0 0 0 
0 0 0 0 0 0 0 0 0 
0 0 0 0 0 0 0 0 0 
0 0 0 0 0 0 0 0 0 
0 0 0 0 0 0 0 0 0 
0 0 0 0 0 0 0 0 0 
0 0 0 0 0 0 0 0 0 
0 0 0 0 0 0 0 0 0 
0 0 0 0 0 0 0 0 0 
0 0 0 0 0 0 0 0 0 
0 0 0 0 0 0 0 0 0 
0 0 0 0 0 0 0 0 0 
0 0 0 0 0 0 0 0 0 
0 0 0 0 0 0 0 0 0 
0 0 0 0 0 0 0 0 0 
0 0 0 0 0 0 0 0 0 
0 0 0 0 0 0 0 0 0 
0 0 0 0 0 0 0 0 0 
0 0 0 0 0 0 0 0 0 
0 0 0 0 0 0 0 0 0 
0 0 0 0 0 0 0 0 0 
0 0 0 0 0 0 0 0 0 
0 0 0 0 0 0 0 0 0 
0 0 0 0 0 0 0 0 0 
0 0 0 0 0 0 0 0 0 
0 0 0 0 0 0 0 0 0 
0 0 0 0 0 0 0 0 0 
0 0 0 0 0 0 0 0 0 
0 0 0 0 0 0 0 0 0 
0 0 0 0 0 0 0 0 0 
0 0 0 0 0 0 0 0 0 
0 0 0 0 0 0 0 0 0 
0 0 0 0 0 0 0 0 0 
0 0 0 0 0 0 0 0 0 
0 0 0 0 0 0 0 0 0 
0 0 0 0 0 0 0 0 0 
0 0 0 0 0 0 0 0 0 
0 0 0 0 0 0 0 0 0 
0 0 0 0 0 0 0 0 0 
0 0 0 0 0 0 0 0 0 
0 0 0 0 0 0 0 0 0 
0 0 0 0 0 0 0 0 0 
0 0 0 0 0 0 0 0 0 
0 0 0 0 0 0 0 0 0 
0 0 0 0 0 0 0 0 0 
0 0 0 0 0 0 0 0 0 
0 0 0 0 0 0 0 0 0 
0 0 0 0 0 0 0 0 0 
0 0 0 0 0 0 0 0 0 
0 0 0 0 0 0 0 0 0 
0 0 0 0 0 0 0 0 0 
0 0 0 0 0 0 0 0 0 
0 0 0 0 0 0 0 0 0 
0 0 0 0 0 0 0 0 0 
0 0 0 0 0 0 0 0 0 
0 0 0 
v 3 538 double
-0.00526356 0.00275407 -1.85174e-05 0.037075 -0.0133459 -0.00200953 0.00318258 0.00491427 7.18597e-05 
-0.00968674 -0.0439454 0.000204639 3.4295e-05 -0.0106968 9.99113e-06 0.01566 0.044791 -3.67911e-05 
-0.000774389 -0.00124012 -0.0011205 0.00486255 0.000670283 -3.19914e-12 0.00518652 -0.0102553 0.000178435 
0.00196385 -0.000368281 5.64802e-05 0.0350651 0.0170287 -0.000162578 0.00283092 -0.00561615 -0.000864941 
-0.0143953 0.0181799 -1.08569e-11 -0.000175635 -0.00242166 0.000276654 -3.13929e-05 -4.50675e-05 -0.00163836 
0.0342617 -0.0117433 0.000178137 0.0375914 -2.68474e-05 -0.00267975 -0.0027051 -0.00568629 0.00151969 
0.0329454 -0.0438728 -0.00470884 0.00529836 -0.031314 0.00809074 0.0471732 -0.0321243 -0.0653006 
-0.0428624 -0.0603907 -0.0136425 -0.00510151 -0.0168866 -0.00441509 0.00283502 -0.0100404 0.0055071 
0.00266721 0.00199717 -2.19268e-06 -4.41156e-05 -0.0198416 -0.0053444 0.00561203 0.06833 -0.0279455 
-0.000500015 -0.0994082 -0.0189386 0.00138421 9.95492e-07 -0.00149399 0.23852 9.12591e-07 -0.0963018 
2.12799e-05 -0.00555231 0.00314246 0.0937679 -0.262324 0.000147318 0.000346169 0.0337458 -0.00185084 
-0.00349869 0.0107635 -0.0119883 -0.00679449 0.00558257 8.30773e-12 0.00238777 4.46947e-05 2.66981e-06 
-0.0179415 0.0129404 8.15079e-06 -0.0240729 0.00339561 -1.96491e-05 0.00152485 0.0238207 -0.000309361 
0.0100994 -0.00153598 0.000138218 6.06201e-06 0.000234608 0.00018012 0.0075085 0.00310381 -3.22518e-12 
0.0939121 -0.00317544 0.00224479 -0.0127069 -2.73771e-05 -8.09337e-05 -0.00272425 0.0139836 -0.000399984 
0.036672 -0.0408241 4.2929e-05 -0.00630424 0.0160021 -3.37353e-06 -0.00725382 -0.00849702 -0.000741177 
0.0427139 0.0383977 -0.0496122 -0.0256104 0.0348767 -1.36553e-07 -0.0710788 -0.0407354 -0.0327309 
-0.00534511 0.0023237 -8.46358e-06 0.017009 -0.0249757 -1.12364e-05 -0.000228964 0.00744111 -0.00262118 
0.000727081 0.00038944 -0.00638462 2.07824e-05 0.0611871 -0.0114515 0.0154052 -0.0230935 0.0082475 
0.04081 0.0487374 -0.0141389 -0.00387363 6.60815e-05 -0.00325304 0.0312101 0.00219181 -0.000283462 
-0.00606953 -9.3047e-05 -0.00531032 0.0548339 -0.0611103 -0.637109 0.0242964 -0.0258227 0.000246964 
0.00455257 -0.00627027 0.000118346 0.0456047 0.0517909 0.000136378 0.00197066 -0.0262608 -0.000568387 
0.0404607 0.00152038 -0.00534815 -0.0876593 -0.0282869 0.00524387 -0.000152489 -0.0166493 -0.000215219 
0.010482 -0.0152038 -7.7694e-06 0.0125157 -0.00601266 8.75661e-05 0.000163553 -0.184133 0.000257903 
-0.00101025 -0.0351937 -0.000129798 0.0142719 0.00164915 -5.75996e-05 0.000795519 -0.0988544 -0.0428089 
-0.0599767 -0.0124243 0.0445893 -0.168072 -0.0547691 -0.0347799 -5.77209e-05 -0.089799 0.0466089 
-0.167515 0.0609748 -0.107748 0.0532422 -0.0368078 0.0164194 0.0521254 -0.0444364 1.53892e-07 
0.0542752 -0.0714519 -0.019134 0.0268785 -0.0220974 -0.00105015 0.0697666 0.111986 -0.0281889 
0.349936 -0.157419 -3.40728e-05 0.0362208 -0.00544963 0.0137845 0.0195068 -0.0496311 -0.000200294 
0.00023643 -0.0157151 -0.0018062 0.000371941 -0.1758 -0.0564743 -0.0554214 -0.116381 -0.0148103 
0.0902639 0.0135356 -0.0266701 0.0248511 0.00661655 1.49751e-11 0.00123056 0.0352726 0.00699548 
0.0322616 -0.0273342 -6.12944e-05 0.0206871 0.0499164 7.19251e-05 -0.0187203 -0.00173996 -1.33726e-07 
-0.039655 -0.0353419 5.00485e-10 0.0706668 0.0950761 6.69684e-05 0.00471981 -0.0205267 -0.000294438 
-0.0825016 -0.0138473 1.33612e-11 -0.0168437 -0.00140697 6.55939e-07 0.0110812 0.0149736 3.29122e-05 
-0.00150345 -0.0125074 9.56347e-05 0.034769 0.0481276 -1.25341e-06 0.00296686 -0.0431684 -0.0393475 
-0.0392772 0.0904233 7.22245e-05 0.112164 -0.0714443 -0.000112271 8.2232e-06 0.0808146 -0.0227659 
-0.166369 0.0657607 -0.129641 0.0999681 -0.0203777 -0.0581502 -0.0235413 -0.251604 -0.158116 
0.000251613 -0.0127516 -0.0287213 0.197633 -0.333582 -0.292329 4.41704e-05 0.0797424 -0.0340354 
-0.0403682 0.105946 -0.0295964 -0.0186861 -0.067271 -0.000170515 0.0140699 0.0061265 -0.000286823 
-0.0349099 0.0234809 0.0183498 0.109052 -0.0677872 8.94484e-05 0.0147385 -0.0199684 0.00954826 
0.00107286 0.0423169 0.00131989 0.0378199 -0.0118471 -1.9501e-05 0.00257035 0.0587607 0.000247961 
-0.00146641 7.01748e-05 8.02747e-12 0.00275701 0.0527506 -1.64479e-06 0.0487263 0.00351439 -0.000227 
0.00346129 0.021611 -1.33495e-05 0.00295075 0.034699 0.000136621 -0.0501094 -0.0171622 -4.92126e-05 
0.0565845 0.0416611 -0.00270706 0.0210906 -0.0238008 2.25118e-05 0.0376457 -0.0180069 -1.28342e-07 
-0.194593 0.130028 -0.102942 -0.00257207 -0.0257275 0.000117331 -0.0546253 -0.223698 6.94919e-05 
0.0734662 0.167016 -0.00705566 -0.143603 0.106282 -0.0340138 0.0376325 0.000284228 -0.000395211 
0.0349551 -0.0126586 -0.188064 0.0585671 -0.0124731 -3.10298e-05 -0.00894422 0.0312543 0.0524459 
0.0662642 -0.0401332 -0.0894622 -0.00317756 -0.0312987 -0.189453 -0.254755 0.05599 -0.238519 
-0.171458 0.0898309 -0.00262887 -0.135773 0.275132 -0.215706 0.0442457 -0.0183605 -0.00579039 
0.026917 0.0193749 -1.03642e-05 0.00438522 0.0235474 4.26937e-05 0.230569 -0.00780402 -0.0960453 
0.00732882 0.0026378 5.53839e-12 0.00027044 0.00419298 -0.000147615 0.00680978 -0.0433221 -0.000175058 
0.0761898 0.0565736 -0.0338731 0.193995 0.0199284 -0.129557 0.0272079 -0.0508283 -0.0166729 
0.0162957 -0.026503 0.000142554 -0.202687 0.100373 0.000106172 -0.233751 -0.0497608 0.000110102 
-7.2996e-05 -0.00220841 5.42531e-12 0.00761316 -0.00904683 -0.000629349 -0.0259966 0.0594242 -4.22324e-06 
-0.133126 0.0325517 -0.0161849 -0.00974473 -0.0253477 0.00477592 -0.105095 -0.0453505 -7.50319e-06 
0.0244793 -0.0112223 -0.000120781 -0.000516495 -0.0029923 1.17655e-11 0.00510483 0.0025343 0.000244269 
-0.0180488 0.00354312 0.000983061 0.00773952 0.0063516 2.23466e-12 -0.00179701 -0.0378184 -0.00313108 
-0.00403766 -0.00411608 -0.00162347 -0.0999415 0.0304831 -0.0613254 7.3079e-05 0.00145619 0.00166103 
-0.0394894 -7.19443e-05 1.33612e-11 -0.0172282 -0.0378175 -5.09342e-05 -0.273889 -0.233991 -0.319456 
-0.064083 -0.0315395 0.0421758 -0.0131851 -0.0273279 -0.000986474 0.000553249 0.00671735 -0.00590303 
0.000315667 -0.00203837 -0.0117178 0.0107145 0.0136817 0.000288257 0.0110652 0.00578177 -0.00205383 
0.00989889 -0.00746044 -0.000567887 -0.0303087 -0.100768 -0.000173816 -3.61227e-05 0.02219 -0.000169765 
0.000163026 -0.0133864 -4.46078e-13 -0.000212603 -0.13419 -0.000329248 0.022761 -0.0142549 -0.000107589 
0.00660807 -0.00929649 -0.000178289 0.0180482 -0.0153999 0.000144295 0.0144749 -0.101654 0.00352492 
-0.0700978 -0.0122131 -3.53018e-05 -0.0298239 -0.0348435 -0.0766882 -0.0942855 0.128307 -0.0132222 
0.0409723 0.0217667 -0.000109865 -0.0092674 -0.105733 -0.057353 -0.045185 -0.0749261 0.0861573 
0.0312816 0.00732807 0.0157982 0.00904819 -0.0545168 -5.42388e-05 -0.00107919 0.00253324 5.89397e-12 
9.21127e-05 -0.00223462 0.0516719 0.0541732 0.10674 -0.0316144 0.0115594 -0.00376492 3.68977e-05 
0.125009 0.118574 -0.0371726 -8.18789e-06 -0.0204644 -0.0107502 0.15178 0.0232127 -0.077519 
0.0187521 -0.0409048 0.000850688 0.0360316 0.0151314 -0.00217101 0.0150661 -0.0126162 0.000866227 
0.0206139 -0.0409487 -6.94189e-05 -9.93702e-05 0.0188614 0.0029697 0.332727 0.117013 -0.437478 
0.0430604 -0.0515045 -0.00157658 -0.0142355 0.00183148 5.5905e-05 0.229242 -0.273362 2.02213e-05 
-0.0157947 -0.0360017 0.00168156 0.0806535 -0.102738 -0.151522 -0.0351708 -0.0236152 -0.0133255 
-0.0836306 -0.00581252 -0.0633288 -0.0120496 -0.107409 -0.000577823 0.0297224 -0.0279118 -1.89295e-05 
-0.0196625 -0.0383454 -0.00267018 -0.0820413 -0.0207319 -3.84848e-05 0.0180396 0.00937514 -4.91164e-05 
0.0469033 -0.0603861 0.00102617 -0.00178658 -0.0189677 0.000607415 -0.101367 -0.0528431 0.00161485 
0.0610548 -0.0169059 7.06322e-05 0.0282327 0.0556927 2.90915e-05 0.00054505 -0.00905466 -0.000362667 
0.0529559 -0.0303255 -0.0248919 0.0250403 -0.0348026 -0.000148784 0.0411611 0.0242132 -0.0224806 
0.0602383 0.014406 0.000109075 0.00123553 -0.00975473 -0.00131221 -0.0524706 -0.0205356 -0.0590025 
0.104805 -0.123573 -0.00852694 0.0602417 0.0141723 0.000270111 0.208179 -0.0198544 -0.139531 
0.033326 0.0927125 0.0241353 0.136984 0.172379 0.0160689 -0.0322627 0.0549074 -0.00145099 
-0.000190749 -0.0194496 0.00106548 -0.000274696 0.0380768 -0.0426197 -3.14224e-05 0.0222993 1.70598e-05 
-7.48159e-05 0.0144529 0.000135628 0.00465413 -0.00658337 -4.78796e-05 -3.38728e-05 0.0144217 -4.71673e-05 
-0.00814162 0.00608401 -4.06234e-12 0.010631 -0.0155085 2.5158e-06 -0.0186914 0.0122321 0.000124659 
0.00152552 0.0205677 -0.000133705 0.00834931 -0.00867496 -0.000122836 -0.0229864 0.0201605 -7.97924e-05 
-0.0383046 0.0524821 9.80704e-12 -0.0112747 -0.00730031 -9.13219e-05 -0.00830083 0.0153402 -8.53945e-12 
-1.14659e-05 -0.000713218 2.85384e-05 0.0146389 -0.00687715 8.86451e-05 -0.000224386 0.0188241 0.00165998 
0.00957237 -0.0356178 -0.0621006 -0.00528948 -0.000720704 0.000954802 -0.0245044 -0.000131264 -0.00470691 
0.0130525 -0.000399062 -0.00502269 -0.00158085 0.0152638 -9.2029e-12 -0.00137295 -0.105547 -0.0486212 
0.199587 -0.0764219 -0.0736804 0.0401335 0.0236594 -7.61816e-12 0.0937704 -0.0345129 0.002292 
-0.0301484 -0.0194579 -0.00223573 -0.0259429 0.0680295 0.000178189 0.00943573 0.00248215 -1.39659e-11 
-0.0102477 -0.020404 -0.0169329 0.085023 0.020374 -0.039774 -0.00741344 -0.0534443 -0.00013114 
0.00131056 -0.0222977 -0.000388872 0.00117071 0.00967167 -0.000317742 0.0659262 -0.088496 -0.000137977 
0.0115732 -0.0333135 -5.28023e-05 -0.0564298 -0.0108108 -7.2808e-05 0.0207916 -0.00217234 7.08079e-05 
-0.0019942 0.0126231 3.19356e-12 -0.0575168 0.0408052 -3.08009e-05 -0.047904 -0.0655195 0.00125697 
-0.000559749 0.0766193 -0.188008 0.000226384 -0.0247414 -0.000856088 -0.0188182 0.0210247 -0.000815869 
-0.0540119 0.00302482 -0.0179394 -0.0826765 -0.109002 -0.0564912 -0.0227451 -0.0251432 -0.000880801 
-0.0540882 -0.0980409 -2.10544e-05 0.0400559 -0.0687376 -0.0303525 0.276315 -0.212617 0.160756 
0.043845 -0.0702198 -0.0477178 -0.0687824 -0.0108805 -0.0155229 0.0412451 0.103151 -0.0312433 
0.123337 -0.0975467 -0.0369397 -0.0379428 0.0878669 -0.00117227 0.155709 -0.107483 -0.0150489 
0.00631923 -0.00403667 0.000153797 -0.041626 -0.025804 -0.00570414 -0.0353637 0.0093082 -0.0064341 
-0.0259502 -0.0126632 0.0114069 0.00994456 -0.0108471 -5.98022e-05 0.00787452 -0.0145647 0.000144325 
0.0030323 0.000246028 -0.00156572 3.85649e-05 -0.000138397 0.000239086 -0.000318497 0.00856993 -0.00731103 
0.006989 -0.0118866 -0.000173515 0.000138442 -0.000328521 7.47891e-05 0.0117736 0.0480448 -0.378222 
-0.00028146 -0.000726281 5.55448e-05 0.000844916 -0.0166684 0.000174443 0.000481838 -0.01531 -1.50491e-05 
0.00132531 -0.00399769 2.34134e-05 -0.069837 -0.0275802 -6.3787e-05 0.00483145 -0.00904458 1.28803e-05 
0.00626206 -0.00421278 0.000157721 -0.0194345 0.0183336 0.000110075 -0.0200038 0.00814731 0.000110771 
-0.31262 -0.0837053 -0.272847 -0.00305573 -0.0081189 3.51121e-05 1.24296e-05 0.0287811 0.0148018 
0.147694 -0.0274781 -0.132883 0.0660235 0.0901258 -0.00387246 -0.00872376 -0.0230457 -0.0121765 
-0.0325746 0.0341188 -1.00919e-11 0.0270147 0.0524264 0.000212092 -0.000346538 -0.0234959 0.0184791 
0.105805 0.0190802 -0.0613371 0.115695 0.0457437 -0.177143 -0.00673768 -0.0330983 0.000134453 
0.0113906 -0.0257016 -0.0143887 -0.00706065 0.0245504 -0.227909 -0.0353052 -0.0555048 -0.0791353 
-0.00853938 0.0105786 0.000156236 0.00741273 0.00788111 -0.000106499 0.0630097 0.0529293 1.0023e-11 
-0.0227128 -0.00825166 0.000520756 0.00343967 -0.0183034 -0.000307229 -0.0495839 -0.015445 -0.0048912 
-0.000423803 -0.0456433 -1.28393e-05 -0.000225449 -0.047074 1.67916e-09 -0.0161226 0.0659342 0.000174459 
-0.00448813 -0.150867 -0.000436523 -0.0746134 -0.0257635 -0.000865855 -0.000220043 0.00970101 0.00369946 
0.000308611 0.0109031 0.00138793 -0.044325 -0.0591806 -2.01736e-06 -0.0401205 -0.00116519 1.69746e-05 
-0.0352643 0.008365 0.0382527 -0.0253644 -0.0542042 0.00492916 0.00214218 -0.00644723 0.0268266 
-0.027842 0.0593826 -0.0589139 0.0705668 0.00449451 0.0197326 -0.0334458 -0.0408356 0.0923354 
-0.00808528 0.0246095 -0.282322 4.77152e-05 0.00147805 -0.000161428 -0.000181939 -5.31014e-05 -1.50931e-13 
-0.00892265 -0.00184996 -0.0133857 -0.0410163 0.0485871 0.0284561 0.0185292 0.0598986 -0.0870705 
-0.000434618 0.0277656 -0.00656599 -0.00899522 -0.0238007 0.00154759 -0.00168685 0.000960263 -0.000208325 
0.0286249 -0.0084497 -0.0224648 -0.00139962 0.016649 -9.69921e-06 -0.000630704 -0.00234569 -2.75526e-05 
-0.0138711 -0.0239501 0.000114415 -0.0412579 -0.000647418 0.000292775 -0.00223412 -0.0419879 0.000138088 
-0.0360552 0.0401867 1.44611e-06 -0.0263827 -0.0157352 -0.000687163 0.000162234 0.00254228 6.92851e-05 
0.0188303 0.019922 -3.09035e-05 0.00734545 -0.0131916 -0.000677337 0.0210074 -0.0166957 0.000326254 
-0.0171763 -0.0447342 1.03225e-05 0.00012917 -0.00227063 -1.15767e-11 0.0041783 0.0515507 -0.00461486 
0.000622663 -0.036418 -0.000205944 0.13424 -0.00306577 -0.158328 0.131337 0.0307591 -0.37429 
-3.57735e-06 0.00248633 0.00337867 -0.0403971 0.0349605 -0.000212336 0.0874056 -0.11745 -0.0433566 
-0.0532687 -0.136058 -0.0158438 0.150962 -0.197452 -0.332921 0.119612 -0.127774 -0.233327 
-0.0283192 -0.0100136 -0.0250501 -0.033297 0.0654049 -0.00149712 -0.0130105 0.0445435 -0.0213504 