# vtk DataFile Version 4.0
Generated by LIGGGHTS
ASCII
DATASET POLYDATA
POINTS 538 float
0.0101738 0.00455268 0.0116574 0.00411779 0.0043819 0.0108755 0.00639134 0.00213942 0.0121393 
0.00310551 0.00662081 0.0116573 0.000677968 0.00742964 0.0106779 0.00687032 0.00651744 0.0121393 
0.00217412 0.00344754 0.0106779 0.00421421 0.000770745 0.0107705 0.000770487 0.00598713 0.0107704 
0.00220531 0.00145878 0.0114587 0.00565788 0.00443435 0.010678 0.003885 0.00275559 0.0107705 
0.00794384 0.00418477 0.0107704 0.000770464 0.00301997 0.0107704 0.000770468 0.00077048 0.0130199 
0.00118706 0.00450355 0.0107705 0.00261849 0.000994461 0.013832 0.00087549 0.00312502 0.0124096 
0.00270023 0.00467243 0.0105965 0.00251261 0.00409028 0.0121843 0.00439969 0.00457247 0.0130355 
0.00830755 0.00414497 0.0133208 0.000994436 0.0071815 0.0131612 0.00348001 0.00266237 0.0131748 
0.00985851 0.00145878 0.0114587 0.000770487 0.00518687 0.0120873 0.0102105 0.00751433 0.0125216 
0.00216499 0.00527672 0.0135873 0.00879319 0.000875474 0.0134522 0.0114718 0.000994481 0.0132477 
0.000770469 0.00441798 0.0134227 0.00958235 0.00688818 0.0108754 0.0113959 0.00679318 0.0137752 
0.0120304 0.00570466 0.0127161 0.012047 0.00581714 0.0107704 0.0125902 0.00128391 0.0112839 
0.0152105 0.00618006 0.01113 0.0225167 0.0036736 0.0114587 0.0165853 0.0040112 0.0114588 
0.0197777 0.00433453 0.0112839 0.0228699 0.00113005 0.01113 0.014512 0.000770453 0.0107704 
0.0160627 0.00195626 0.0107704 0.0208968 0.000875492 0.0108754 0.0214295 0.00565028 0.010678 
0.0167375 0.000677949 0.010678 0.0186179 0.00165739 0.0116574 0.02287 0.00795032 0.01113 
0.0171931 0.0074925 0.0115473 0.0181263 0.00566471 0.0108754 0.02287 0.0065403 0.0128963 
0.0134739 0.00406442 0.0116574 0.0199015 0.0070689 0.0114587 0.0230055 0.00191607 0.0130991 
0.0231229 0.00586548 0.0108755 0.0230055 0.00457343 0.0136881 0.021283 0.00542814 0.0123798 
0.0150843 0.00162892 0.0127465 0.02146 0.000875486 0.0125333 0.012966 0.00804393 0.011883 
0.0200681 0.000994484 0.0137764 0.00903769 0.00902558 0.0112839 0.00455839 0.012154 0.0112839 
0.00787562 0.014171 0.0121393 0.00637732 0.00887527 0.0106779 0.00421373 0.0150512 0.0116573 
0.0111493 0.0108167 0.0114587 0.00446387 0.00941841 0.0114587 0.00113003 0.0118057 0.01113 
0.00145881 0.00925899 0.0114587 0.00837174 0.0118138 0.010678 0.000770474 0.013637 0.0107704 
0.00195417 0.0158872 0.0108754 0.00970598 0.01237 0.0107704 0.00113008 0.0147248 0.0122868 
0.00689991 0.0106666 0.0112839 0.0102854 0.00931437 0.0130226 0.000677982 0.0129799 0.0124284 
0.00287967 0.0108783 0.0126325 0.00884255 0.0109843 0.012933 0.0114414 0.0132079 0.0109944 
0.00254246 0.0129685 0.012457 0.00599336 0.0118263 0.0130231 0.00278574 0.0171518 0.0128058 
0.0106207 0.0080374 0.010678 0.00446458 0.0130483 0.0133774 0.0106613 0.0150375 0.0109944 
0.000526847 0.0149956 0.010525 0.000770487 0.0162535 0.0133573 0.0112617 0.0142124 0.0125614 
0.0185004 0.0108976 0.0118397 0.0155041 0.00906831 0.0109944 0.0166797 0.00947478 0.0125464 
0.0173184 0.015458 0.0112839 0.0142133 0.0113498 0.0116574 0.0206089 0.0107376 0.0109944 
0.0151597 0.0164383 0.0108754 0.018695 0.00933572 0.01113 0.0218684 0.012791 0.0114587 
0.0189986 0.0110597 0.0106779 0.0211514 0.0089521 0.0108754 0.0169327 0.0110379 0.01113 
0.0228681 0.0103095 0.01113 0.0204127 0.0157693 0.0118831 0.0159029 0.0146489 0.0126998 
0.0185837 0.0130048 0.0114587 0.0160441 0.0133846 0.01113 0.0230055 0.0140135 0.0132563 
0.01251 0.0104082 0.0134588 0.0143131 0.0157665 0.0136657 0.0201055 0.0113479 0.0133165 
0.0231245 0.0146701 0.0108754 0.0150503 0.0131958 0.0131764 0.0232295 0.015482 0.0123033 
0.014927 0.00947033 0.0131982 0.0135948 0.0146065 0.0116574 0.0230057 0.0166447 0.0109944 
0.00087543 0.0175366 0.0123317 0.0063087 0.0166318 0.0109944 0.010049 0.0167774 0.0133354 
0.00077048 0.0170261 0.0107704 0.00630496 0.0238802 0.0114587 0.00314497 0.0197819 0.0109944 
0.00825846 0.0244146 0.0106779 0.00128397 0.0215261 0.0112839 0.00698656 0.0212757 0.0108754 
0.0040735 0.0222949 0.0112839 0.00113007 0.0191219 0.01113 0.00239059 0.0175829 0.0108754 
0.00529966 0.0202213 0.01113 0.00996138 0.020091 0.0107704 0.0104286 0.0185163 0.0108754 
0.00275893 0.0230081 0.0133713 0.00898257 0.0164881 0.0107705 0.000770477 0.023448 0.0107704 
0.00609883 0.0216574 0.0124763 0.00297005 0.0208535 0.0126609 0.00788499 0.0188693 0.011883 
0.00447786 0.0179568 0.0112839 0.00929267 0.0224053 0.011883 0.0046615 0.0194857 0.0133388 
0.000994451 0.0240769 0.0124042 0.00572731 0.0170159 0.012616 0.0044797 0.0216082 0.0131771 
0.00471392 0.0233738 0.0127922 0.0104668 0.0245788 0.0125579 0.00805042 0.0246295 0.0126256 
0.0110557 0.0244988 0.0109944 0.00292119 0.0245897 0.0112839 0.0120467 0.0234025 0.0125903 
0.0122342 0.0228454 0.010678 0.000875384 0.0251471 0.0108754 0.0118608 0.0169528 0.0112839 
0.0158645 0.0168557 0.0128735 0.0121798 0.0185761 0.012502 0.0133088 0.0168067 0.0128793 
0.0170812 0.0179991 0.01113 0.0139566 0.0222 0.0109944 0.0149993 0.0240394 0.0109944 
0.0231213 0.0227028 0.0108755 0.0194375 0.0187223 0.0112839 0.0120335 0.0205408 0.0114587 
0.0153006 0.0226941 0.0126108 0.0181919 0.0218492 0.0107703 0.0169713 0.0232609 0.01113 
0.0185662 0.0170721 0.0106779 0.0233334 0.0212713 0.0105965 0.0223277 0.0191212 0.0116574 
0.0141465 0.0184588 0.0114587 0.0154974 0.021275 0.0107705 0.0159872 0.019511 0.0107703 
0.0205766 0.0221901 0.011883 0.0145187 0.020753 0.012244 0.0231245 0.0170319 0.0128472 
0.0140202 0.0204438 0.0106779 0.0173153 0.0204673 0.0128591 0.0132952 0.0219698 0.0126145 
0.0176772 0.0258338 0.0127549 0.0181446 0.0233449 0.0128992 0.0231246 0.0213591 0.0125361 
0.0230055 0.0231343 0.0131117 0.00936196 0.0264288 0.0116574 0.00945998 0.0286867 0.0107704 
0.00747117 0.0286515 0.0112839 0.0086755 0.0322049 0.01113 0.00132012 0.0320529 0.0112839 
0.00342119 0.0271085 0.0112839 0.000994462 0.0270094 0.0109944 0.00535085 0.0286304 0.0108754 
0.00611586 0.0312353 0.0116574 0.00593671 0.0265925 0.0112839 0.0107562 0.0313224 0.01113 
0.00889015 0.0302272 0.0108754 0.00165737 0.0292776 0.0121979 0.00461379 0.0253128 0.0130745 
0.00394737 0.0298603 0.0109944 0.00495579 0.0282003 0.012794 0.00169117 0.0260525 0.0127586 
0.00331056 0.0311957 0.012138 0.00714614 0.0261477 0.0133252 0.0074534 0.0255056 0.0106779 
0.00077047 0.0274943 0.0135866 0.00214015 0.033605 0.011721 0.00349608 0.0326635 0.0109944 
0.00932639 0.0292969 0.0122932 0.000596482 0.0311783 0.012783 0.0124533 0.031348 0.0128467 
0.0117188 0.02876 0.0116574 0.00764718 0.0334048 0.012186 0.00704844 0.033294 0.0107704 
0.0116209 0.0265019 0.0107704 0.000875474 0.0335964 0.0127272 0.0190918 0.0264747 0.0126861 
0.0121962 0.030566 0.010525 0.0223426 0.0252505 0.0116573 0.0130417 0.0243907 0.0109944 
0.0165537 0.0254821 0.01113 0.0127408 0.026118 0.0124495 0.0201761 0.0260581 0.0119864 
0.0151162 0.0250997 0.0128317 0.0188603 0.0247836 0.0112839 0.0144871 0.0259613 0.0109944 
0.0157933 0.0274612 0.0109944 0.0180514 0.0273695 0.0112837 0.0144359 0.02909 0.01113 
0.013121 0.0324944 0.0109944 0.0225412 0.0314052 0.0114587 0.0200131 0.0263743 0.010678 
0.0153162 0.0315023 0.0114587 0.0196265 0.031537 0.0114587 0.023401 0.0271442 0.0105965 
0.0165171 0.0291832 0.0120066 0.0135563 0.027444 0.0107704 0.0184143 0.0292791 0.0119488 
0.0172836 0.0317948 0.0106779 0.0232187 0.0284044 0.010678 0.0209494 0.0284975 0.011883 
0.0135421 0.0306015 0.010678 0.0177232 0.030318 0.0108754 0.0174747 0.0311031 0.0125542 
0.0143914 0.0273924 0.0120645 0.0198162 0.0332523 0.0130307 0.0198132 0.0336491 0.0107704 
0.023322 0.0331027 0.0124955 0.0232296 0.0273219 0.0125614 0.000994457 0.0342893 0.0109944 
0.000875475 0.0361516 0.0108754 0.00274457 0.0342447 0.0107704 0.000875441 0.0379025 0.0108754 
0.00606288 0.0355916 0.010678 0.011471 0.0406982 0.0121393 0.00787153 0.034969 0.01113 
0.00691485 0.0375336 0.0116573 0.00388055 0.0361986 0.0116574 0.00683047 0.0408475 0.0116573 
0.00953561 0.0366565 0.0109944 0.00397185 0.0393072 0.0114587 0.00928016 0.0386364 0.0109944 
0.00128397 0.0399832 0.0112839 0.00526262 0.033836 0.01113 0.00128398 0.0357053 0.0129483 
0.0105091 0.0342371 0.0116574 0.00488956 0.0380212 0.0135096 0.00483006 0.0405308 0.0135726 
0.00198668 0.0380444 0.0125389 0.00875323 0.0400877 0.0105965 0.0086733 0.0392363 0.012991 
0.00623291 0.0351719 0.0122685 0.00912076 0.0413192 0.010678 0.0129157 0.0343492 0.0108754 
0.00261213 0.0406947 0.0131699 0.0174377 0.0340494 0.011883 0.0147092 0.0338336 0.0109944 
0.0212224 0.0334433 0.0118129 0.0138968 0.0391628 0.0130603 0.0181123 0.0367019 0.0109944 
0.0230056 0.033769 0.0109944 0.012814 0.0369151 0.011883 0.015703 0.0376865 0.0109944 
0.0139928 0.0411821 0.0107704 0.0196607 0.038962 0.011883 0.0203079 0.0357109 0.0114588 
0.0232283 0.0402166 0.0107705 0.0152866 0.0357416 0.0109944 0.0173507 0.0382783 0.0107704 
0.022716 0.038289 0.0112839 0.02287 0.0358848 0.01113 0.0178537 0.0407867 0.0108754 
0.022368 0.0402285 0.0129305 0.0144035 0.0393617 0.01113 0.0162696 0.0393764 0.0107704 
0.0158871 0.041203 0.01113 0.0170629 0.0398564 0.0121304 0.0155489 0.0367024 0.0122351 
0.0143719 0.0409055 0.0122382 0.00585195 0.0489539 0.0120272 0.00336566 0.0499316 0.0133696 
0.00763338 0.0427233 0.0131581 0.00395834 0.0461833 0.0122377 0.00874745 0.0484075 0.0125018 
0.00657792 0.047594 0.0126757 0.00907199 0.0469751 0.0119563 0.00470757 0.0435271 0.0128193 
0.0067528 0.0435635 0.01205 0.00270566 0.0461843 0.0109944 0.0107923 0.0479837 0.0114587 
0.00139863 0.0454801 0.012318 0.000875434 0.0465488 0.0108754 0.00132459 0.0480575 0.0123535 
0.00373163 0.0444804 0.0109944 0.000770432 0.0449096 0.0107704 0.00708609 0.0494093 0.0109944 
0.001735 0.0428657 0.0116574 0.011309 0.0447093 0.011883 0.00851925 0.0455634 0.01113 
0.00595133 0.045558 0.0114587 0.00797706 0.0476131 0.0109944 0.0039085 0.0482715 0.0114587 
0.00612149 0.0478118 0.0108754 0.00861495 0.0431558 0.0112839 0.00562549 0.0433214 0.0108754 
[...]
POINT_DATA 538
FIELD FieldData 7
id 1 538 int
1 2 3 4 5 6 7 8 9 
10 11 12 13 14 15 16 17 18 
19 20 21 22 24 25 26 29 31 
33 34 35 38 39 45 55 56 57 
58 59 60 61 62 63 64 65 66 
67 68 69 70 71 72 73 76 77 
80 81 82 85 90 95 96 106 107 
108 109 110 111 112 113 114 115 116 
117 118 119 120 121 122 124 126 128 
129 131 132 133 134 141 144 155 162 
163 164 165 166 167 168 169 170 171 
172 173 174 175 176 177 178 179 181 
184 187 190 191 192 194 197 198 200 
219 220 222 223 224 225 226 227 228 
229 230 231 232 233 234 235 236 237 
238 239 240 241 242 244 245 248 250 
251 254 262 264 265 270 273 275 276 
279 283 284 285 286 287 288 289 290 
291 292 293 294 295 296 297 298 299 
300 301 302 303 305 306 308 309 310 
317 330 331 332 333 334 335 336 337 
338 339 340 341 342 343 344 346 347 
348 349 351 353 357 359 362 366 368 
375 376 379 380 382 385 386 387 388 
389 390 391 392 393 394 395 396 397 
398 399 400 401 402 403 404 405 406 
408 409 410 411 413 415 416 417 418 
419 421 435 436 437 439 440 441 442 
443 444 445 446 447 448 449 450 451 
453 455 456 457 458 459 460 466 478 
479 497 498 499 500 501 502 503 504 
505 506 507 508 509 510 511 513 514 
515 516 517 522 523 524 535 486 487 
488 489 490 491 492 493 494 495 496 
512 518 519 520 521 525 526 527 528 
529 530 531 532 533 534 536 537 538 
438 452 454 461 462 463 464 465 467 
468 469 470 471 472 473 474 475 476 
477 480 481 482 483 484 485 355 356 
358 360 361 363 364 365 367 369 370 
371 372 373 374 377 378 381 383 384 
407 412 414 420 422 423 424 425 426 
427 428 429 430 431 432 433 434 266 
267 268 269 271 272 274 277 278 280 
281 282 304 307 311 312 313 314 315 
316 318 319 320 321 322 323 324 325 
326 327 328 329 345 350 352 354 207 
208 209 210 211 212 213 214 215 216 
217 218 221 243 246 247 249 252 253 
255 256 257 258 259 260 261 263 142 
143 145 146 147 148 149 150 151 152 
153 154 156 157 158 159 160 161 180 
182 183 185 186 188 189 193 195 196 
199 201 202 203 204 205 206 86 87 
88 89 91 92 93 94 97 98 99 
100 101 102 103 104 105 123 125 127 
130 135 136 137 138 139 140 23 27 
28 30 32 36 37 40 41 42 43 
44 46 47 48 49 50 51 52 53 
54 74 75 78 79 83 84 
type 1 538 int
1 1 1 1 1 1 1 1 1 
1 1 1 1 1 1 1 1 1 
1 1 1 1 1 1 1 1 1 
1 1 1 1 1 1 1 1 1 
1 1 1 1 1 1 1 1 1 
1 1 1 1 1 1 1 1 1 
1 1 1 1 1 1 1 1 1 
1 1 1 1 1 1 1 1 1 
1 1 1 1 1 1 1 1 1 
1 1 1 1 1 1 1 1 1 
1 1 1 1 1 1 1 1 1 
1 1 1 1 1 1 1 1 1 
1 1 1 1 1 1 1 1 1 
1 1 1 1 1 1 1 1 1 
1 1 1 1 1 1 1 1 1 
1 1 1 1 1 1 1 1 1 
1 1 1 1 1 1 1 1 1 
1 1 1 1 1 1 1 1 1 
1 1 1 1 1 1 1 1 1 
1 1 1 1 1 1 1 1 1 
1 1 1 1 1 1 1 1 1 
1 1 1 1 1 1 1 1 1 
1 1 1 1 1 1 1 1 1 
1 1 1 1 1 1 1 1 1 
1 1 1 1 1 1 1 1 1 
1 1 1 1 1 1 1 1 1 
1 1 1 1 1 1 1 1 1 
1 1 1 1 1 1 1 1 1 
1 1 1 1 1 1 1 1 1 
1 1 1 1 1 1 1 1 1 
1 1 1 1 1 1 1 1 1 
1 1 1 1 1 1 1 1 1 
1 1 1 1 1 1 1 1 1 
1 1 1 1 1 1 1 1 1 
1 1 1 1 1 1 1 1 1 
1 1 1 1 1 1 1 1 1 
1 1 1 1 1 1 1 1 1 
1 1 1 1 1 1 1 1 1 
1 1 1 1 1 1 1 1 1 
1 1 1 1 1 1 1 1 1 
1 1 1 1 1 1 1 1 1 
1 1 1 1 1 1 1 1 1 
1 1 1 1 1 1 1 1 1 
1 1 1 1 1 1 1 1 1 
1 1 1 1 1 1 1 1 1 
1 1 1 1 1 1 1 1 1 
1 1 1 1 1 1 1 1 1 
1 1 1 1 1 1 1 1 1 
1 1 1 1 1 1 1 1 1 
1 1 1 1 1 1 1 1 1 
1 1 1 1 1 1 1 1 1 
1 1 1 1 1 1 1 1 1 
1 1 1 1 1 1 1 1 1 
1 1 1 1 1 1 1 1 1 
1 1 1 1 1 1 1 1 1 
1 1 1 1 1 1 1 1 1 
1 1 1 1 1 1 1 1 1 
1 1 1 1 1 1 1 1 1 
1 1 1 1 1 1 1 1 1 
1 1 1 1 1 1 1 
i 3 538 int
0 0 0 0 0 0 0 0 0 
0 0 0 0 0 0 0 0 0 
0 0 0 0 0 0 0 0 0 
0 0 0 0 0 0 0 0 0 
0 0 0 0 0 0 0 0 0 
0 0 0 0 0 0 0 0 0 
0 0 0 0 0 0 0 0 0 
0 0 0 0 0 0 0 0 0 
0 0 0 0 0 0 0 0 0 
0 0 0 0 0 0 0 0 0 
0 0 0 0 0 0 0 0 0 
0 0 0 0 0 0 0 0 0 
0 0 0 0 0 0 0 0 0 
0 0 0 0 0 0 0 0 0 
0 0 0 0 0 0 0 0 0 
0 0 0 0 0 0 0 0 0 
0 0 0 0 0 0 0 0 0 
0 0 0 0 0 0 0 0 0 
0 0 0 0 0 0 0 0 0 
0 0 0 0 0 0 0 0 0 
0 0 0 0 0 0 0 0 0 
0 0 0 0 0 0 0 0 0 
0 0 0 0 0 0 0 0 0 
0 0 0 0 0 0 0 0 0 
0 0 0 0 0 0 0 0 0 
0 0 0 0 0 0 0 0 0 
0 0 0 0 0 0 0 0 0 
0 0 0 0 0 0 0 0 0 
0 0 0 0 0 0 0 0 0 
0 0 0 0 0 0 0 0 0 
0 0 0 0 0 0 0 0 0 
0 0 0 0 0 0 0 0 0 
0 0 0 0 0 0 0 0 0 
0 0 0 0 0 0 0 0 0 
0 0 0 0 0 0 0 0 0 
0 0 0 0 0 0 0 0 0 
0 0 0 0 0 0 0 0 0 
0 0 0 0 0 0 0 0 0 
0 0 0 0 0 0 0 0 0 
0 0 0 0 0 0 0 0 0 
0 0 0 0 0 0 0 0 0 
0 0 0 0 0 0 0 0 0 
0 0 0 0 0 0 0 0 0 
0 0 0 0 0 0 0 0 0 
0 0 0 0 0 0 0 0 0 
0 0 0 0 0 0 0 0 0 
0 0 0 0 0 0 0 0 0 
0 0 0 0 0 0 0 0 0 
0 0 0 0 0 0 0 0 0 
0 0 0 0 0 0 0 0 0 
0 0 0 0 0 0 0 0 0 
0 0 0 0 0 0 0 0 0 
0 0 0 0 0 0 0 0 0 
0 0 0 0 0 0 0 0 0 
0 0 0 0 0 0 0 0 0 
0 0 0 0 0 0 0 0 0 
0 0 0 0 0 0 0 0 0 
0 0 0 0 0 0 0 0 0 
0 0 0 0 0 0 0 0 0 
0 0 0 0 0 0 0 0 0 
0 0 0 0 0 0 0 0 0 
0 0 0 0 0 0 0 0 0 
0 0 0 0 0 0 0 0 0 
0 0 0 0 0 0 0 0 0 
0 0 0 0 0 0 0 0 0 
0 0 0 0 0 0 0 0 0 
0 0 0 0 0 0 0 0 0 
0 0 0 0 0 0 0 0 0 
0 0 0 0 0 0 0 0 0 
0 0 0 0 0 0 0 0 0 
0 0 0 0 0 0 0 0 0 
0 0 0 0 0 0 0 0 0 
0 0 0 0 0 0 0 0 0 
0 0 0 0 0 0 0 0 0 
0 0 0 0 0 0 0 0 0 
0 0 0 0 0 0 0 0 0 
0 0 0 0 0 0 0 0 0 
0 0 0 0 0 0 0 0 0 
0 0 0 0 0 0 0 0 0 
0 0 0 0 0 0 0 0 0 
0 0 0 0 0 0 0 0 0 
0 0 0 0 0 0 0 0 0 
0 0 0 0 0 0 0 0 0 
0 0 0 0 0 0 0 0 0 
0 0 0 0 0 0 0 0 0 
0 0 0 0 0 0 0 0 0 
0 0 0 0 0 0 0 0 0 
0 0 0 0 0 0 0 0 0 
0 0 0 0 0 0 0 0 0 
0 0 0 0 0 0 0 0 0 
0 0 0 0 0 0 0 0 0 
0 0 0 0 0 0 0 0 0 
0 0 0 0 0 0 0 0 0 
0 0 0 0 0 0 0 0 0 
0 0 0 0 0 0 0 0 0 
0 0 0 0 0 0 0 0 0 
0 0 0 0 0 0 0 0 0 
0 0 0 0 0 0 0 0 0 
0 0 0 0 0 0 0 0 0 
0 0 0 0 0 0 0 0 0 
0 0 0 0 0 0 0 0 0 
0 0 0 0 0 0 0 0 0 
0 0 0 0 0 0 0 0 0 
0 0 0 0 0 0 0 0 0 
0 0 0 0 0 0 0 0 0 
0 0 0 0 0 0 0 0 0 
0 0 0 0 0 0 0 0 0 
0 0 0 0 0 0 0 0 0 
0 0 0 0 0 0 0 0 0 
0 0 0 0 0 0 0 0 0 
0 0 0 0 0 0 0 0 0 
0 0 0 0 0 0 0 0 0 
0 0 0 0 0 0 0 0 0 
0 0 0 0 0 0 0 0 0 
0 0 0 0 0 0 0 0 0 
0 0 0 0 0 0 0 0 0 
0 0 0 0 0 0 0 0 0 
0 0 0 0 0 0 0 0 0 
0 0 0 0 0 0 0 0 0 
0 0 0 0 0 0 0 0 0 
0 0 0 0 0 0 0 0 0 
0 0 0 0 0 0 0 0 0 
0 0 0 0 0 0 0 0 0 
0 0 0 0 0 0 0 0 0 
0 0 0 0 0 0 0 0 0 
0 0 0 0 0 0 0 0 0 
0 0 0 0 0 0 0 0 0 
0 0 0 0 0 0 0 0 0 
0 0 0 0 0 0 0 0 0 
0 0 0 0 0 0 0 0 0 
0 0 0 0 0 0 0 0 0 
0 0 0 0 0 0 0 0 0 
0 0 0 0 0 0 0 0 0 
0 0 0 0 0 0 0 0 0 
0 0 0 0 0 0 0 0 0 
0 0 0 0 0 0 0 0 0 
0 0 0 0 0 0 0 0 0 
0 0 0 0 0 0 0 0 0 
0 0 0 0 0 0 0 0 0 
0 0 0 0 0 0 0 0 0 
0 0 0 0 0 0 0 0 0 
0 0 0 0 0 0 0 0 0 
0 0 0 0 0 0 0 0 0 
0 0 0 0 0 0 0 0 0 
0 0 0 0 0 0 0 0 0 
0 0 0 0 0 0 0 0 0 
0 0 0 0 0 0 0 0 0 
0 0 0 0 0 0 0 0 0 
0 0 0 0 0 0 0 0 0 
0 0 0 0 0 0 0 0 0 
0 0 0 0 0 0 0 0 0 
0 0 0 0 0 0 0 0 0 
0 0 0 0 0 0 0 0 0 
0 0 0 0 0 0 0 0 0 
0 0 0 0 0 0 0 0 0 
0 0 0 0 0 0 0 0 0 
0 0 0 0 0 0 0 0 0 
0 0 0 0 0 0 0 0 0 
0 0 0 0 0 0 0 0 0 
0 0 0 0 0 0 0 0 0 
0 0 0 0 0 0 0 0 0 
0 0 0 0 0 0 0 0 0 
0 0 0 0 0 0 0 0 0 
0 0 0 0 0 0 0 0 0 
0 0 0 0 0 0 0 0 0 
0 0 0 0 0 0 0 0 0 
0 0 0 0 0 0 0 0 0 
0 0 0 0 0 0 0 0 0 
0 0 0 0 0 0 0 0 0 
0 0 0 0 0 0 0 0 0 
0 0 0 0 0 0 0 0 0 
0 0 0 0 0 0 0 0 0 
0 0 0 0 0 0 0 0 0 
0 0 0 0 0 0 0 0 0 
0 0 0 0 0 0 0 0 0 
0 0 0 0 0 0 0 0 0 
0 0 0 0 0 0 0 0 0 
0 0 0 0 0 0 0 0 0 
0 0 0 0 0 0 0 0 0 
0 0 0 
v 3 538 double
-0.000634197 3.57749e-05 -7.15255e-07 -0.000417378 0.00139973 1.23218e-11 -0.000321745 -5.66934e-06 2.33569e-06 
-0.000610089 -0.00036678 5.54507e-06 4.17356e-06 1.85681e-07 5.46168e-07 -0.000579045 0.00034801 -2.5038e-06 
3.4139e-07 -8.39396e-08 -1.68379e-06 0.0011408 7.40936e-05 1.50201e-11 3.34534e-07 4.96898e-08 -1.45589e-07 
3.59771e-06 1.23791e-06 -3.78972e-07 -0.000239463 0.000456503 -2.99559e-12 0.000137923 0.00121638 1.08648e-11 
-0.000678853 0.000271522 3.88479e-06 1.08063e-06 7.76015e-07 2.17369e-07 1.49597e-06 8.63808e-07 1.21651e-06 
-3.55265e-07 -2.79418e-07 -4.70583e-07 -0.00046032 9.42974e-06 7.69277e-05 2.45444e-06 1.03841e-06 5.7924e-07 
-0.000223743 -0.000730278 1.65131e-11 -0.000686761 -0.000288501 0.000272239 -0.000235124 -1.15018e-05 0.000179721 
-0.000666775 0.000300699 9.17633e-06 5.20694e-06 0.244445 -0.0903913 -0.000250341 -2.45353e-05 0.000215296 
-0.000283788 5.95829e-08 2.6783e-06 9.00999e-08 -2.96944e-07 -4.14138e-07 0.000258802 -0.00383428 0.00115888 
0.000106978 -0.000252483 0.000435761 -0.000309803 -3.56521e-06 -8.39021e-06 -0.000265848 1.87551e-06 3.72059e-06 
3.21014e-07 1.70337e-06 -7.46353e-08 -0.000549105 4.9397e-05 -5.25993e-06 0.00153141 -0.00154971 0.00126981 
9.12975e-05 -0.00107265 -8.47607e-05 8.88054e-05 -0.00104586 -6.0794e-06 -0.000242517 2.43332e-05 6.63431e-06 
0.000316765 0.000362431 1.56361e-05 0.0213545 0.00299502 -2.39779e-06 0.00118539 0.000968923 1.11105e-05 
0.11758 -0.0509269 -7.09264e-07 2.23848e-07 4.41032e-06 4.13063e-06 -0.000261733 -1.87e-06 4.20705e-06 
0.00165976 0.000858085 -6.27946e-06 1.88733e-06 4.53154e-07 -1.65826e-07 -0.0201906 0.0172757 5.53839e-12 
6.11813e-06 -5.40846e-06 -2.00415e-07 1.09274e-06 -4.98469e-06 -3.41e-06 -5.05406e-05 0.00388094 -2.71832e-05 
0.0578445 0.00465106 -0.286286 0.0915593 -0.0833032 -1.65019e-05 1.25437e-05 0.0545006 0.0403823 
0.000997099 -0.000307724 -1.65877e-05 0.0590866 -0.0482297 -8.76304e-06 -8.25014e-07 -0.00213696 0.000859186 
-0.000652034 0.0099045 1.43333e-11 -2.38797e-06 0.0349331 -0.00821056 0.042144 -0.0210989 0.0737952 
0.00133964 -0.000226835 -0.000354236 6.60386e-08 4.79209e-07 1.55689e-06 -0.000599565 -0.000778119 1.37637e-05 
-1.83775e-07 4.92953e-07 -5.57124e-07 0.00295389 -0.00268064 6.65246e-06 -0.0266798 -0.00310518 3.98178e-06 
-0.00575658 -0.00740919 7.67707e-06 0.00937192 0.00242323 -3.1469e-06 -0.00410216 -0.000455475 8.66039e-06 
0.00195839 0.0008762 1.74586e-07 0.00747295 -0.00428139 2.54153e-07 -5.7351e-06 -2.68607e-06 3.74257e-08 
4.12206e-06 8.21479e-06 -3.4649e-06 0.00966462 -0.00416058 1.21911e-06 -5.77801e-07 9.67799e-07 3.73971e-06 
0.0198668 0.0643285 -5.74047e-06 0.00601147 0.0046083 -1.50763e-05 -1.24108e-05 0.0419389 -0.0300726 
0.00310304 0.00424918 -4.73997e-06 0.00570845 -0.00322392 -0.00187181 -1.64756e-06 0.0413449 -0.0373907 
0.00474062 0.0242165 -0.0391414 0.00283276 -0.00432383 0.00195599 -0.0116566 0.00253271 -2.60396e-06 
-0.0284365 0.0229853 0.0100973 -0.0173413 -0.000852903 -0.00727142 -0.0129678 0.00205176 -0.0155058 
0.00919933 0.00679443 -4.63231e-11 -0.0165178 -0.00198795 -4.09373e-06 -0.00916571 0.00358878 4.01247e-06 
0.000363341 -0.124285 1.63097e-11 -5.45252e-06 0.0490721 -0.0402543 -0.00885192 0.00337843 -0.000226587 
0.00984592 -0.0109565 -0.0178649 -0.00377334 0.00703453 -9.52818e-06 0.124765 -0.0853697 -0.073204 
-0.000346217 -0.00872479 1.8822e-05 0.00245412 -0.00195392 3.51682e-07 0.0413811 0.00903186 4.61041e-06 
-0.0227661 0.00907172 -6.30704e-05 0.145732 -0.0021474 1.19493e-05 0.0260575 0.0184807 -3.66069e-06 
0.042743 0.0159672 -5.35865e-06 -0.00546957 -0.00525662 4.96758e-05 0.00279669 0.000771126 2.07958e-05 
-0.000235959 0.0300338 1.18553e-12 -0.00169315 0.0049251 -1.33877e-06 -0.00859407 0.00890465 0.00184964 
-0.00346225 0.0060978 -9.78264e-06 -0.00381052 0.00363479 -1.07532e-05 -6.63292e-06 0.017248 0.0173315 
0.00157882 -0.000355471 7.51831e-06 0.0264281 0.0113778 -0.0209258 0.0176151 0.0172852 -0.00730815 
-6.72314e-06 0.0359433 1.03163e-05 0.00117898 0.00143914 -0.00341897 2.66212e-06 0.0140818 0.0124636 
0.110696 -0.051643 -0.110742 -0.00752496 -0.00385614 1.4928e-05 -1.15259e-05 1.89562e-05 3.82063e-06 
-5.31427e-06 0.0734725 -0.00973061 0.000783102 -0.00334022 -2.19974e-05 -0.00453445 -0.00743804 -0.00213515 
3.38008e-06 0.0437002 1.19449e-06 0.001549 0.000976143 5.9519e-05 0.0221419 0.013245 1.06149e-05 
0.00353438 0.00276121 0.000381705 1.49987e-05 0.0808529 6.13956e-06 -0.000548197 -0.00348266 -0.00107276 
0.00233815 0.000996171 -6.19572e-05 -1.31529e-05 0.0808591 1.77473e-06 -0.0106706 0.0721643 -5.65778e-06 
-0.000470254 -0.000547865 -0.000191918 -0.00265669 -0.00159278 -0.00112433 -3.93803e-05 0.00120293 -1.06318e-05 
0.00541463 0.0166755 -0.00355714 0.00429211 -0.0118756 4.40224e-11 7.38768e-06 0.0808662 1.2408e-05 
-0.00116052 0.000661935 -0.00126239 -0.0219382 0.0145731 -0.00543723 -0.000925056 -0.00216422 -7.22525e-06 
0.00243933 -0.00121297 -1.37282e-05 -0.00413217 -0.00355495 -0.00186731 -0.0268621 0.00875979 -0.00477461 
-5.34508e-05 0.0288993 0.0200397 -0.00751783 -0.0147543 -0.000284026 -0.00327677 -0.0214677 -0.00702008 
0.00124763 0.00135635 2.16139e-06 -0.00992463 0.0292693 0.0288809 0.0016192 0.00126424 5.32236e-05 
-0.000677068 -0.000716977 0.00165413 0.000295114 6.41566e-05 1.18756e-05 -0.00736703 0.0120377 0.000143701 
0.0785793 -0.0147958 6.24955e-12 0.000131775 0.000352955 3.25934e-05 -0.0027704 -0.00044811 1.3709e-05 
0.0158937 0.0286202 -0.017877 -0.0120607 -0.000247973 0.00222852 0.00384815 0.000918458 -0.00590669 
0.0243489 0.0468789 -9.43328e-06 0.0139068 0.0257578 5.28366e-06 0.000573508 0.00216735 -1.78755e-05 
-0.000352052 -0.014517 3.70118e-12 -0.000657756 0.00519254 -3.8993e-05 -0.00237007 -0.000773759 -3.19492e-05 
0.00418539 0.00917472 0.00525159 -0.000116603 0.000290375 -1.68354e-05 -0.000117916 0.000495029 6.38845e-06 
-0.00138869 0.00551214 4.09843e-05 -0.00037675 -0.0147286 6.22669e-12 2.19253e-05 6.18987e-05 9.91951e-06 
-0.0123589 0.0142389 1.97469e-05 0.0169541 -0.0359694 1.50201e-11 -0.0147952 0.0186024 4.34533e-05 
-6.4897e-05 9.06449e-05 8.36417e-06 -0.00201635 0.0124654 0.000616404 -2.19527e-06 0.0114417 0.0200509 
-0.00158865 0.014927 -2.90409e-06 -0.00295493 0.00217511 9.4155e-05 -0.00671741 0.0115233 -0.0104258 
0.0229999 0.0435648 0.0756853 -0.0011144 -0.00297538 0.000879967 7.21389e-06 0.000125697 -4.66263e-06 
-4.68262e-05 0.00013677 4.02678e-05 0.00076701 0.00321754 -0.000682497 -1.75159e-05 0.00196979 -0.00017509 
1.25149e-05 0.000260077 -8.0085e-05 -0.000341684 0.00115188 2.51325e-05 9.10657e-05 0.0001879 -3.62556e-06 
-9.98506e-05 0.000168737 -1.8534e-05 -3.74797e-05 0.000256609 -1.37293e-05 1.49588e-05 0.000313984 -1.71328e-05 
1.18685e-05 0.00012071 -3.89358e-05 -0.000102088 0.000557945 -5.54728e-05 0.000681362 0.00355832 -5.30966e-06 
-0.00108579 0.00118158 -3.47615e-05 -4.92441e-05 0.00018722 -9.67715e-05 5.54158e-05 0.00103205 -6.48817e-07 
1.60407e-05 4.89905e-05 -2.22855e-05 -0.000309591 0.000633578 -2.12322e-05 0.0280151 0.0224218 0.000953768 
0.000160996 -4.12159e-06 0.00012382 0.00133721 0.00275851 -0.000531538 0.00121668 0.00196102 0.000109279 
1.0983e-05 0.0030304 0.00362253 -0.000110885 0.000231252 0.000213567 9.7861e-05 -9.40618e-05 -6.94523e-06 
-0.000527021 0.00150044 7.45835e-06 4.56995e-07 0.000201598 -3.72351e-05 -0.000447946 0.00290669 0.00110342 
-0.00010812 0.00331583 5.16195e-05 -0.000912183 0.000378244 0.000344812 3.43314e-05 2.93257e-05 -2.39679e-05 
0.00160737 0.00319093 0.000130764 -3.09675e-05 0.000149886 -1.78021e-05 0.0796579 0.162043 0.0233247 
0.0194147 0.00236782 -4.81257e-12 -1.51015e-05 0.000265382 2.14182e-05 0.00074331 0.00500929 0.000114312 
0.00214112 0.0011207 0.000541902 4.26576e-05 0.00376308 0.00140061 -0.00188302 0.00170017 -0.00872114 
-0.000430047 0.00222929 -0.000193256 -0.00423357 -0.002063 0.000171666 -0.00123771 0.00173305 3.73446e-05 
-0.000595912 0.000905686 -9.32709e-05 -0.0049103 0.0223371 0.00820108 0.00039389 0.00030747 1.4943e-05 
0.000248673 0.000727397 -9.07699e-06 0.000650531 0.00027619 -7.18749e-05 -0.021061 0.0288636 0.000177068 
6.35366e-06 0.000234564 -1.66347e-06 0.000426288 0.000281637 0.000107807 -0.000343212 0.0466056 -9.2029e-12 
0.00218163 0.000632874 -3.41848e-05 -0.00166366 0.00134401 -1.2079e-05 0.00655932 0.023818 0.0140223 
-0.000337762 0.00117361 -0.000451305 -0.0125445 0.0453309 -1.01072e-11 0.00258758 0.00155444 0.000624449 
-0.000498538 0.0031226 1.33612e-11 -0.000275677 0.00211097 -0.00105515 0.000119429 0.000246831 -0.000227747 
0.000123476 -0.0389227 -0.00275564 7.87632e-05 0.000107567 1.56859e-05 -3.53305e-05 5.25325e-05 -4.96895e-05 
6.27583e-05 0.000170177 3.3901e-05 0.00100537 0.000389787 -0.000144707 2.52325e-06 0.000154701 -1.03193e-06 
-1.59666e-05 0.000131019 1.32937e-06 -2.29091e-05 -0.000151813 1.07998e-05 1.09279e-05 0.000121072 -1.39482e-05 
-0.00297771 0.000606024 6.60514e-12 -0.000518212 0.000742993 -9.93443e-07 4.325e-05 -3.7922e-06 -1.78298e-05 
-4.21162e-06 -5.79274e-05 1.68831e-05 1.91471e-05 -0.000155129 8.99031e-06 0.00052357 -6.54884e-05 -1.33413e-05 
0.0338977 0.00983113 -4.40503e-12 0.000216848 -0.000178726 -5.57209e-06 -0.0290188 0.00693835 -1.18987e-11 
-1.47791e-05 0.000129544 1.15796e-05 6.00524e-06 -2.37715e-05 -5.04681e-05 -1.11722e-05 0.000139501 9.91117e-06 
0.000203779 0.000637103 -2.07972e-06 1.00903e-05 -0.000229931 8.30156e-05 0.000270433 0.000176703 -0.00024855 
7.1638e-05 -1.79122e-05 -9.15043e-05 -0.0762876 -0.00664252 -8.94658e-13 0.000116218 -0.00033355 0.000200776 
2.81747e-06 -5.68222e-05 -5.37036e-05 0.00489137 -0.0195864 1.4428e-11 0.000198819 0.000773554 2.91385e-05 
0.000228068 -0.000125737 -3.57213e-05 4.6166e-05 7.20578e-05 3.5625e-05 2.72895e-05 0.000149676 -3.59318e-07 
4.28008e-05 4.95384e-05 -1.18464e-05 -0.000109735 0.00112027 -0.000466246 6.37888e-06 3.43609e-05 1.07103e-06 
2.11079e-05 0.000101678 -3.31869e-05 -3.40145e-05 0.0008415 -5.91952e-06 0.00080474 -0.0019704 6.14524e-07 
-0.000135553 -0.0013368 -1.04765e-05 1.67321e-05 1.34817e-06 2.79464e-06 6.39943e-06 5.71819e-06 3.90105e-06 
-0.000322129 0.0011288 1.37415e-11 -0.00115275 -0.0015221 -1.90376e-06 3.37561e-05 5.69145e-05 -1.77991e-05 
9.80225e-07 4.09461e-06 -1.77318e-07 6.14658e-06 1.28975e-05 -8.3746e-06 3.97364e-07 -4.58127e-06 1.98298e-06 
1.055e-05 4.47757e-06 -3.12568e-06 0.00242883 -0.000757202 5.53385e-07 0.00243053 0.0024679 4.77996e-06 
-0.00105705 0.00176139 -2.60721e-06 0.000633848 0.00137953 0.00143509 0.0395862 -0.0103144 -0.00180233 
-0.000412885 -0.000922806 0.000142061 0.0631075 -0.180229 -0.00162683 0.000252641 -0.000587244 -0.000292109 
0.000761845 -8.82804e-05 -0.000148369 -0.000343765 -0.00126262 0.000101429 0.00331196 -0.0389445 0.0184453 
0.394715 -0.0550495 -0.108602 0.00192517 0.000934102 -0.00251315 0.000986124 -0.000356086 0.000331458 
0.00105708 0.000555879 -0.000160802 -0.000236901 -0.00177762 5.15082e-05 0.00247088 0.00128913 4.56355e-05 
-0.00100635 -4.3046e-06 0.000380122 0.000115423 -9.8889e-05 -6.24187e-06 -0.000963564 0.000168758 0.000254629 
0.00128018 -0.000886784 -3.4044e-05 1.94581e-05 -0.000124945 7.11966e-06 -0.00116876 -0.000180616 0.000108333 
0.0005393 7.90604e-05 9.88984e-06 0.000266092 0.000843761 -2.37781e-05 4.8527e-05 0.000180983 1.63355e-05 
7.85194e-05 0.000325081 0.000159224 -0.000875817 1.10741e-05 8.40056e-07 -0.000703189 -0.00133745 7.99725e-05 
-0.000920566 -1.19723e-05 -0.000619687 0.000952558 -0.00036575 -2.87253e-05 0.000776466 -0.000104073 0.000106746 
0.000506176 -7.40437e-05 1.89767e-05 0.000512021 -7.6032e-05 5.41491e-05 1.63831e-05 -0.000256835 -0.000328835 
0.00235265 -0.000802949 0.00134167 0.00109874 -0.00275671 -0.000756185 -0.0019344 -0.00646219 0.00399548 
0.0116767 0.0154599 -1.55516e-11 0.00438638 -0.00410818 1.08281e-06 -2.27265e-06 -0.0219666 0.00106746 
0.00304812 -0.00153485 0.000741782 -0.00558842 -0.00535415 0.00227305 -0.00070455 -0.00127637 4.40417e-05 
-0.00556788 -0.00306718 0.00597431 -0.00067654 -0.00141591 7.91435e-06 0.013601 -0.0505565 1.75399e-07 
-5.36629e-06 -2.74859e-07 -2.4253e-06 0.0218999 -0.0354123 9.11233e-06 0.0023164 -8.99186e-05 4.13727e-06 
-0.00864579 0.000732038 -2.38544e-06 0.0017718 -0.000346848 -1.66101e-05 1.81387e-05 -0.00718719 0.00194688 
4.36335e-05 -0.0222251 8.72839e-06 -0.000628537 -0.0390955 -1.15097e-11 -0.00643372 -0.00727052 -9.41152e-07 
-0.00021089 0.000863822 -3.91108e-06 -0.00138219 -0.000627722 -1.79581e-06 -0.00197981 -0.0203099 0.0116744 
1.1152e-06 1.88196e-06 -2.6731e-06 -0.00110014 -3.52705e-05 7.79381e-06 0.0136147 -0.00342682 4.82375e-05 
0.000360103 -0.000761071 0.000705884 -0.142503 -0.0621588 -0.0148493 8.08956e-05 0.000842014 -0.000281269 
6.20072e-05 -0.000183543 7.01055e-05 -0.054442 0.0964958 -0.0980522 8.59931e-05 0.000772974 -0.00095885 
0.00344368 0.00205008 -0.0053087 9.14675e-05 0.000593803 -0.000955136 -0.00100201 0.000550803 -2.40445e-06 
-0.000829553 0.000404317 -5.86663e-05 -0.000749313 -0.000867175 -0.000684424 0.00132701 0.00217101 -0.00717013 
-9.33559e-05 0.00251903 -0.000552257 -0.000538924 8.97696e-05 -4.19731e-05 -0.000130383 -9.72085e-05 2.38963e-05 
-0.000472887 0.000424751 0.000155054 -0.00132146 -9.87696e-05 -1.57005e-06 -8.51534e-05 0.00151931 0.000158872 