# vtk DataFile Version 4.0
Generated by LIGGGHTS
ASCII
DATASET POLYDATA
POINTS 538 float
0.0101742 0.004553 0.0116574 0.0041204 0.00438105 0.0108755 0.00639422 0.00213944 0.0121393 
0.00310467 0.00662237 0.0116573 0.000677974 0.00743721 0.0106779 0.00686951 0.00651941 0.0121393 
0.00216297 0.00344743 0.0106779 0.00422072 0.000770748 0.0107705 0.000770482 0.00599469 0.0107704 
0.00219956 0.00145878 0.0114587 0.00566039 0.00443544 0.010678 0.00389991 0.00275274 0.0107705 
0.00794388 0.00418706 0.0107704 0.000770464 0.00302523 0.0107704 0.000770467 0.00077048 0.0130251 
0.00118294 0.00450996 0.0107704 0.00261927 0.000994461 0.0138308 0.000875495 0.00312958 0.0124097 
0.00269237 0.00460392 0.0105965 0.00251273 0.00409098 0.0121813 0.00439961 0.00457165 0.0130313 
0.00830766 0.00414757 0.0133209 0.000994422 0.0065873 0.013263 0.00348114 0.00266099 0.0131707 
0.00986139 0.00145882 0.0114587 0.000770489 0.00519507 0.0120877 0.0102131 0.00755135 0.0125058 
0.00226228 0.00525977 0.0136194 0.00879606 0.000875472 0.0134521 0.0114746 0.000994481 0.0132477 
0.000770496 0.00442352 0.0134216 0.00958177 0.00688825 0.0108754 0.011387 0.00681821 0.0137633 
0.012022 0.00572808 0.0127062 0.0120286 0.00584777 0.0107705 0.012593 0.00128394 0.0112839 
0.0152019 0.00617811 0.01113 0.0224676 0.0036663 0.0114587 0.0165635 0.00400093 0.0114588 
0.0192544 0.00450264 0.0112839 0.0228699 0.00113005 0.01113 0.0145149 0.000770452 0.0107704 
0.0160361 0.00194723 0.0107704 0.0208869 0.00087549 0.0108754 0.0215355 0.00555959 0.010678 
0.0167277 0.000677945 0.010678 0.018608 0.00165747 0.0116574 0.0228699 0.00783704 0.01113 
0.0167923 0.0076059 0.0122522 0.0174528 0.00607894 0.0108754 0.0226731 0.00629713 0.0127726 
0.0134541 0.0040716 0.0116574 0.0198552 0.00717313 0.0114587 0.0230055 0.00192123 0.0130971 
0.0231245 0.00582903 0.0108754 0.0230055 0.00442866 0.0137277 0.0210087 0.00530592 0.0122537 
0.0150612 0.00163586 0.0127509 0.0214575 0.000875482 0.0125308 0.0129754 0.00806364 0.011883 
0.0200642 0.000994485 0.0137723 0.00900934 0.00905106 0.0112839 0.00463924 0.012163 0.0112839 
0.00791976 0.0142311 0.0121393 0.00634247 0.00886988 0.0106779 0.00424453 0.0150539 0.0116574 
0.0111451 0.0108274 0.0114587 0.00443493 0.00943345 0.0114587 0.00113002 0.0118104 0.01113 
0.00146398 0.00926433 0.0114588 0.00833879 0.0118296 0.010678 0.000770482 0.0136417 0.0107704 
0.00192608 0.0157091 0.0108754 0.00968247 0.0123629 0.0107705 0.00113006 0.0146202 0.0123596 
0.00688419 0.0106556 0.0112839 0.0102503 0.00934708 0.0130262 0.000677982 0.0128767 0.0125184 
0.00323128 0.010959 0.0129562 0.00883086 0.0110242 0.0129176 0.0115182 0.0132073 0.0109944 
0.00261907 0.0129208 0.0124175 0.00606829 0.0118659 0.0130334 0.00310178 0.0172874 0.0131616 
0.0107182 0.00793048 0.010678 0.00450984 0.0130529 0.0133774 0.0107252 0.0150313 0.0109944 
0.000524998 0.0156484 0.010525 0.000770477 0.0161758 0.0133905 0.0113117 0.0142019 0.0125644 
0.0182472 0.00999464 0.0126489 0.0155347 0.00903385 0.0109944 0.0162264 0.009765 0.0127099 
0.0173384 0.0154111 0.0112839 0.0142077 0.0113752 0.0116574 0.0205476 0.0107019 0.0109944 
0.0153077 0.0163883 0.0108754 0.018245 0.00917356 0.01113 0.0219669 0.0126483 0.0114587 
0.0189079 0.0107937 0.0106779 0.0212319 0.00896575 0.0108754 0.0169198 0.0110046 0.01113 
0.0228694 0.0101518 0.01113 0.0204394 0.015646 0.011883 0.0159666 0.01447 0.0126607 
0.0187767 0.0127784 0.0114587 0.0162443 0.0132042 0.01113 0.0230055 0.0139536 0.0132577 
0.0125084 0.0104259 0.0134585 0.0142697 0.0157616 0.0137203 0.0202445 0.0111531 0.0133866 
0.0231245 0.0145896 0.0108754 0.0149464 0.0131838 0.0132696 0.0232295 0.0154159 0.012295 
0.0145338 0.00966684 0.0134988 0.0136472 0.0146427 0.0116574 0.0230056 0.0165973 0.0109944 
0.00129896 0.0172728 0.0122831 0.00630897 0.0166635 0.0109944 0.0100787 0.0168459 0.0133432 
0.000770467 0.0168965 0.0107704 0.00628376 0.0239423 0.0114587 0.0030749 0.0197495 0.0109944 
0.0082942 0.0244333 0.010678 0.00128397 0.0213092 0.0112839 0.00695633 0.0213067 0.0108754 
0.00408351 0.022314 0.0112839 0.00113007 0.018905 0.01113 0.00241857 0.0173893 0.0108754 
0.00528594 0.0202265 0.01113 0.00999325 0.0200984 0.0107705 0.0104319 0.0185154 0.0108755 
0.00282359 0.0230712 0.0133894 0.00900155 0.0166105 0.0107705 0.000770476 0.023231 0.0107704 
0.00603457 0.0217125 0.012451 0.00303496 0.0208331 0.0126618 0.00788513 0.0189012 0.011883 
0.00445984 0.0179635 0.0112839 0.0092801 0.0223996 0.011883 0.00472204 0.0194652 0.0133503 
0.000994411 0.02396 0.0123621 0.00583358 0.0168725 0.0126813 0.00444648 0.0217332 0.0132208 
0.00460948 0.0235387 0.0127236 0.00945312 0.0246248 0.0131419 0.0080485 0.0246258 0.012637 
0.0110401 0.0244956 0.0109944 0.00289929 0.0245925 0.0112839 0.011369 0.0242153 0.0130745 
0.0118217 0.0229231 0.010678 0.000875493 0.0252257 0.0108755 0.011886 0.0169704 0.0112839 
0.0158855 0.0167498 0.0129244 0.0122419 0.0186419 0.0124241 0.0132933 0.0168132 0.0129142 
0.017097 0.0178175 0.01113 0.0136603 0.0224754 0.0109944 0.0149828 0.0240138 0.0109944 
0.0231232 0.022779 0.0108755 0.0194253 0.018763 0.0112839 0.0120931 0.0206458 0.0114587 
0.0154101 0.0228405 0.0127132 0.0181797 0.0218659 0.0107703 0.0169763 0.0232922 0.01113 
0.018673 0.0170554 0.0106779 0.0233354 0.0213486 0.0105965 0.0223264 0.0190736 0.0116574 
0.0142339 0.0183772 0.0114588 0.0158804 0.0215012 0.0107705 0.0160954 0.0193922 0.0107703 
0.0205729 0.0221413 0.011883 0.0145506 0.0209806 0.0121513 0.0231245 0.0169713 0.0128231 
0.0140613 0.0203587 0.0106779 0.0172961 0.0204954 0.0128637 0.0136299 0.0220738 0.0131872 
0.0175395 0.0251729 0.0128875 0.0181669 0.0233582 0.0128884 0.0231246 0.0213146 0.0125269 
0.0230055 0.0230939 0.0130898 0.00934853 0.0264273 0.0116574 0.00946317 0.0286919 0.0107704 
0.0074742 0.0286632 0.0112839 0.00862271 0.0322376 0.01113 0.00129776 0.0320426 0.0112839 
0.00334681 0.0271212 0.0112839 0.000994455 0.0270929 0.0109944 0.00535437 0.028714 0.0108754 
0.00607942 0.0312258 0.0116574 0.00587232 0.0266561 0.0112838 0.0106626 0.0312644 0.01113 
0.00886585 0.0302632 0.0108754 0.00165739 0.029305 0.012298 0.00447459 0.0254964 0.0130992 
0.00389473 0.0298768 0.0109943 0.0049137 0.0282858 0.0127846 0.00154342 0.0259811 0.0127195 
0.00331318 0.0312171 0.0121614 0.00710888 0.0261423 0.0132924 0.00740193 0.0255873 0.0106779 
0.000770471 0.0274684 0.0136153 0.00214601 0.0335853 0.0116996 0.00347473 0.0326693 0.0109944 
0.00928435 0.0293118 0.0122846 0.000596483 0.0312229 0.0128242 0.0123919 0.0313389 0.0128631 
0.0117227 0.0287408 0.0116574 0.0075779 0.0334067 0.0122042 0.00702834 0.033277 0.0107704 
0.0116084 0.0264724 0.0107705 0.00087549 0.0335915 0.0127281 0.0189268 0.0262855 0.0125528 
0.0121287 0.0307802 0.010525 0.0223154 0.0252163 0.0116574 0.0130243 0.02436 0.0109944 
0.0166406 0.0255272 0.01113 0.0127449 0.0260968 0.0124424 0.0201824 0.0260651 0.0120863 
0.0151951 0.0250926 0.0128122 0.0189323 0.0247833 0.0112839 0.0144973 0.0259427 0.0109944 
0.0157784 0.0274642 0.0109944 0.0180383 0.0274895 0.0112839 0.0144355 0.0291049 0.01113 
0.0130079 0.0324878 0.0109944 0.0225412 0.0314152 0.0114587 0.0197 0.0266289 0.010678 
0.0152261 0.0315481 0.0114588 0.0196259 0.0315309 0.0114587 0.0234028 0.0268995 0.0105965 
0.016506 0.0291986 0.0120314 0.0135561 0.027419 0.0107704 0.0184764 0.0293431 0.012054 
0.0172987 0.031757 0.010678 0.0232846 0.0281664 0.010678 0.0209831 0.0284893 0.011883 
0.0134664 0.0306055 0.010678 0.0177662 0.0302463 0.0108754 0.0174245 0.0311545 0.0124739 
0.0143805 0.027453 0.0120719 0.0198462 0.0333827 0.0130838 0.0198292 0.0336607 0.0107704 
0.023322 0.0331127 0.0124955 0.0232296 0.0272646 0.0125865 0.000994462 0.0342821 0.0109944 
0.00087546 0.0361445 0.0108754 0.00274501 0.0342607 0.0107704 0.000875446 0.0378954 0.0108754 
0.00603378 0.035471 0.010678 0.0114783 0.040691 0.0121393 0.00785558 0.0349498 0.01113 
0.00693156 0.0375263 0.0116574 0.00388906 0.0362099 0.0116574 0.00678652 0.040838 0.0116574 
0.00935944 0.0365796 0.0109944 0.00394366 0.0393193 0.0114587 0.00943288 0.0386076 0.0109944 
0.00128399 0.0399761 0.0112839 0.00524693 0.0338333 0.01113 0.00129487 0.0356987 0.0129462 
0.0104971 0.0342324 0.0116574 0.004902 0.0380429 0.013497 0.00481081 0.0404982 0.0135943 
0.00197701 0.0380335 0.0125456 0.00914394 0.0401273 0.0105965 0.00866247 0.0392611 0.0129858 
0.00621661 0.0351733 0.0122641 0.00912159 0.0413993 0.010678 0.0129033 0.034351 0.0108754 
0.00259157 0.040704 0.0131781 0.0174486 0.0340305 0.011883 0.0147146 0.0339021 0.0109944 
0.0212283 0.0334547 0.0118263 0.0138093 0.0391238 0.0132349 0.0180367 0.0367036 0.0109944 
0.0230056 0.0337789 0.0109944 0.0128509 0.0369184 0.011883 0.0157173 0.0377414 0.0109944 
0.0140026 0.0411615 0.0107704 0.0196837 0.0389885 0.011883 0.0203075 0.0357264 0.0114587 
0.0232294 0.0402372 0.0107705 0.0153496 0.0357868 0.0109944 0.0173688 0.0383219 0.0107704 
0.0227161 0.0382989 0.0112839 0.0228699 0.0358947 0.01113 0.0178485 0.0408173 0.0108754 
0.0224051 0.0402442 0.0129311 0.0144579 0.0394129 0.0113592 0.0162689 0.0394029 0.0107704 
0.0158794 0.0412281 0.01113 0.017079 0.0398637 0.0121271 0.0154813 0.0367739 0.0122352 
0.0143605 0.0411405 0.0122691 0.00581381 0.049219 0.0120737 0.003369 0.0499744 0.0133866 
0.007734 0.0426031 0.0132073 0.00360359 0.0455592 0.0123843 0.00868172 0.04843 0.0125212 
0.00588455 0.0476854 0.0127372 0.00937799 0.0465881 0.012196 0.0046902 0.0435366 0.012819 
0.00668808 0.0436051 0.0120858 0.00272609 0.04621 0.0109944 0.0107087 0.0479701 0.0114587 
0.00141831 0.0454927 0.0123102 0.000875493 0.0465625 0.0108754 0.0013001 0.0480778 0.012354 
0.0036999 0.0444757 0.0109944 0.000770404 0.0449233 0.0107704 0.0070739 0.0494292 0.0109944 
0.00170101 0.0428638 0.0116574 0.0112426 0.0446986 0.011883 0.00846218 0.045585 0.01113 
0.00589421 0.0455916 0.0114587 0.00794476 0.0476411 0.0109944 0.00388097 0.0483241 0.0114587 
0.00608957 0.0478435 0.0108755 0.00853047 0.0431769 0.0112839 0.0056091 0.0433224 0.0108754 
[...]
POINT_DATA 538
FIELD FieldData 7
id 1 538 int
1 2 3 4 5 6 7 8 9 
10 11 12 13 14 15 16 17 18 
19 20 21 22 24 25 26 29 31 
33 34 35 38 39 45 55 56 57 
58 59 60 61 62 63 64 65 66 
67 68 69 70 71 72 73 76 77 
80 81 82 85 90 95 96 106 107 
108 109 110 111 112 113 114 115 116 
117 118 119 120 121 122 124 126 128 
129 131 132 133 134 141 144 155 162 
163 164 165 166 167 168 169 170 171 
172 173 174 175 176 177 178 179 181 
184 187 190 191 192 194 197 198 200 
219 220 222 223 224 225 226 227 228 
229 230 231 232 233 234 235 236 237 
238 239 240 241 242 244 245 248 250 
251 254 262 264 265 270 273 275 276 
279 283 284 285 286 287 288 289 290 
291 292 293 294 295 296 297 298 299 
300 301 302 303 305 306 308 309 310 
317 330 331 332 333 334 335 336 337 
338 339 340 341 342 343 344 346 347 
348 349 351 353 357 359 362 366 368 
375 376 379 380 382 385 386 387 388 
389 390 391 392 393 394 395 396 397 
398 399 400 401 402 403 404 405 406 
408 409 410 411 413 415 416 417 418 
419 421 435 436 437 439 440 441 442 
443 444 445 446 447 448 449 450 451 
453 455 456 457 458 459 460 466 478 
479 497 498 499 500 501 502 503 504 
505 506 507 508 509 510 511 513 514 
515 516 517 522 523 524 535 486 487 
488 489 490 491 492 493 494 495 496 
512 518 519 520 521 525 526 527 528 
529 530 531 532 533 534 536 537 538 
438 452 454 461 462 463 464 465 467 
468 469 470 471 472 473 474 475 476 
477 480 481 482 483 484 485 355 356 
358 360 361 363 364 365 367 369 370 
371 372 373 374 377 378 381 383 384 
407 412 414 420 422 423 424 425 426 
427 428 429 430 431 432 433 434 266 
267 268 269 271 272 274 277 278 280 
281 282 304 307 311 312 313 314 315 
316 318 319 320 321 322 323 324 325 
326 327 328 329 345 350 352 354 207 
208 209 210 211 212 213 214 215 216 
217 218 221 243 246 247 249 252 253 
255 256 257 258 259 260 261 263 142 
143 145 146 147 148 149 150 151 152 
153 154 156 157 158 159 160 161 180 
182 183 185 186 188 189 193 195 196 
199 201 202 203 204 205 206 86 87 
88 89 91 92 93 94 97 98 99 
100 101 102 103 104 105 123 125 127 
130 135 136 137 138 139 140 23 27 
28 30 32 36 37 40 41 42 43 
44 46 47 48 49 50 51 52 53 
54 74 75 78 79 83 84 
type 1 538 int
1 1 1 1 1 1 1 1 1 
1 1 1 1 1 1 1 1 1 
1 1 1 1 1 1 1 1 1 
1 1 1 1 1 1 1 1 1 
1 1 1 1 1 1 1 1 1 
1 1 1 1 1 1 1 1 1 
1 1 1 1 1 1 1 1 1 
1 1 1 1 1 1 1 1 1 
1 1 1 1 1 1 1 1 1 
1 1 1 1 1 1 1 1 1 
1 1 1 1 1 1 1 1 1 
1 1 1 1 1 1 1 1 1 
1 1 1 1 1 1 1 1 1 
1 1 1 1 1 1 1 1 1 
1 1 1 1 1 1 1 1 1 
1 1 1 1 1 1 1 1 1 
1 1 1 1 1 1 1 1 1 
1 1 1 1 1 1 1 1 1 
1 1 1 1 1 1 1 1 1 
1 1 1 1 1 1 1 1 1 
1 1 1 1 1 1 1 1 1 
1 1 1 1 1 1 1 1 1 
1 1 1 1 1 1 1 1 1 
1 1 1 1 1 1 1 1 1 
1 1 1 1 1 1 1 1 1 
1 1 1 1 1 1 1 1 1 
1 1 1 1 1 1 1 1 1 
1 1 1 1 1 1 1 1 1 
1 1 1 1 1 1 1 1 1 
1 1 1 1 1 1 1 1 1 
1 1 1 1 1 1 1 1 1 
1 1 1 1 1 1 1 1 1 
1 1 1 1 1 1 1 1 1 
1 1 1 1 1 1 1 1 1 
1 1 1 1 1 1 1 1 1 
1 1 1 1 1 1 1 1 1 
1 1 1 1 1 1 1 1 1 
1 1 1 1 1 1 1 1 1 
1 1 1 1 1 1 1 1 1 
1 1 1 1 1 1 1 1 1 
1 1 1 1 1 1 1 1 1 
1 1 1 1 1 1 1 1 1 
1 1 1 1 1 1 1 1 1 
1 1 1 1 1 1 1 1 1 
1 1 1 1 1 1 1 1 1 
1 1 1 1 1 1 1 1 1 
1 1 1 1 1 1 1 1 1 
1 1 1 1 1 1 1 1 1 
1 1 1 1 1 1 1 1 1 
1 1 1 1 1 1 1 1 1 
1 1 1 1 1 1 1 1 1 
1 1 1 1 1 1 1 1 1 
1 1 1 1 1 1 1 1 1 
1 1 1 1 1 1 1 1 1 
1 1 1 1 1 1 1 1 1 
1 1 1 1 1 1 1 1 1 
1 1 1 1 1 1 1 1 1 
1 1 1 1 1 1 1 1 1 
1 1 1 1 1 1 1 1 1 
1 1 1 1 1 1 1 
i 3 538 int
0 0 0 0 0 0 0 0 0 
0 0 0 0 0 0 0 0 0 
0 0 0 0 0 0 0 0 0 
0 0 0 0 0 0 0 0 0 
0 0 0 0 0 0 0 0 0 
0 0 0 0 0 0 0 0 0 
0 0 0 0 0 0 0 0 0 
0 0 0 0 0 0 0 0 0 
0 0 0 0 0 0 0 0 0 
0 0 0 0 0 0 0 0 0 
0 0 0 0 0 0 0 0 0 
0 0 0 0 0 0 0 0 0 
0 0 0 0 0 0 0 0 0 
0 0 0 0 0 0 0 0 0 
0 0 0 0 0 0 0 0 0 
0 0 0 0 0 0 0 0 0 
0 0 0 0 0 0 0 0 0 
0 0 0 0 0 0 0 0 0 
0 0 0 0 0 0 0 0 0 
0 0 0 0 0 0 0 0 0 
0 0 0 0 0 0 0 0 0 
0 0 0 0 0 0 0 0 0 
0 0 0 0 0 0 0 0 0 
0 0 0 0 0 0 0 0 0 
0 0 0 0 0 0 0 0 0 
0 0 0 0 0 0 0 0 0 
0 0 0 0 0 0 0 0 0 
0 0 0 0 0 0 0 0 0 
0 0 0 0 0 0 0 0 0 
0 0 0 0 0 0 0 0 0 
0 0 0 0 0 0 0 0 0 
0 0 0 0 0 0 0 0 0 
0 0 0 0 0 0 0 0 0 
0 0 0 0 0 0 0 0 0 
0 0 0 0 0 0 0 0 0 
0 0 0 0 0 0 0 0 0 
0 0 0 0 0 0 0 0 0 
0 0 0 0 0 0 0 0 0 
0 0 0 0 0 0 0 0 0 
0 0 0 0 0 0 0 0 0 
0 0 0 0 0 0 0 0 0 
0 0 0 0 0 0 0 0 0 
0 0 0 0 0 0 0 0 0 
0 0 0 0 0 0 0 0 0 
0 0 0 0 0 0 0 0 0 
0 0 0 0 0 0 0 0 0 
0 0 0 0 0 0 0 0 0 
0 0 0 0 0 0 0 0 0 
0 0 0 0 0 0 0 0 0 
0 0 0 0 0 0 0 0 0 
0 0 0 0 0 0 0 0 0 
0 0 0 0 0 0 0 0 0 
0 0 0 0 0 0 0 0 0 
0 0 0 0 0 0 0 0 0 
0 0 0 0 0 0 0 0 0 
0 0 0 0 0 0 0 0 0 
0 0 0 0 0 0 0 0 0 
0 0 0 0 0 0 0 0 0 
0 0 0 0 0 0 0 0 0 
0 0 0 0 0 0 0 0 0 
0 0 0 0 0 0 0 0 0 
0 0 0 0 0 0 0 0 0 
0 0 0 0 0 0 0 0 0 
0 0 0 0 0 0 0 0 0 
0 0 0 0 0 0 0 0 0 
0 0 0 0 0 0 0 0 0 
0 0 0 0 0 0 0 0 0 
0 0 0 0 0 0 0 0 0 
0 0 0 0 0 0 0 0 0 
0 0 0 0 0 0 0 0 0 
0 0 0 0 0 0 0 0 0 
0 0 0 0 0 0 0 0 0 
0 0 0 0 0 0 0 0 0 
0 0 0 0 0 0 0 0 0 
0 0 0 0 0 0 0 0 0 
0 0 0 0 0 0 0 0 0 
0 0 0 0 0 0 0 0 0 
0 0 0 0 0 0 0 0 0 
0 0 0 0 0 0 0 0 0 
0 0 0 0 0 0 0 0 0 
0 0 0 0 0 0 0 0 0 
0 0 0 0 0 0 0 0 0 
0 0 0 0 0 0 0 0 0 
0 0 0 0 0 0 0 0 0 
0 0 0 0 0 0 0 0 0 
0 0 0 0 0 0 0 0 0 
0 0 0 0 0 0 0 0 0 
0 0 0 0 0 0 0 0 0 
0 0 0 0 0 0 0 0 0 
0 0 0 0 0 0 0 0 0 
0 0 0 0 0 0 0 0 0 
0 0 0 0 0 0 0 0 0 
0 0 0 0 0 0 0 0 0 
0 0 0 0 0 0 0 0 0 
0 0 0 0 0 0 0 0 0 
0 0 0 0 0 0 0 0 0 
0 0 0 0 0 0 0 0 0 
0 0 0 0 0 0 0 0 0 
0 0 0 0 0 0 0 0 0 
0 0 0 0 0 0 0 0 0 
0 0 0 0 0 0 0 0 0 
0 0 0 0 0 0 0 0 0 
0 0 0 0 0 0 0 0 0 
0 0 0 0 0 0 0 0 0 
0 0 0 0 0 0 0 0 0 
0 0 0 0 0 0 0 0 0 
0 0 0 0 0 0 0 0 0 
0 0 0 0 0 0 0 0 0 
0 0 0 0 0 0 0 0 0 
0 0 0 0 0 0 0 0 0 
0 0 0 0 0 0 0 0 0 
0 0 0 0 0 0 0 0 0 
0 0 0 0 0 0 0 0 0 
0 0 0 0 0 0 0 0 0 
0 0 0 0 0 0 0 0 0 
0 0 0 0 0 0 0 0 0 
0 0 0 0 0 0 0 0 0 
0 0 0 0 0 0 0 0 0 
0 0 0 0 0 0 0 0 0 
0 0 0 0 0 0 0 0 0 
0 0 0 0 0 0 0 0 0 
0 0 0 0 0 0 0 0 0 
0 0 0 0 0 0 0 0 0 
0 0 0 0 0 0 0 0 0 
0 0 0 0 0 0 0 0 0 
0 0 0 0 0 0 0 0 0 
0 0 0 0 0 0 0 0 0 
0 0 0 0 0 0 0 0 0 
0 0 0 0 0 0 0 0 0 
0 0 0 0 0 0 0 0 0 
0 0 0 0 0 0 0 0 0 
0 0 0 0 0 0 0 0 0 
0 0 0 0 0 0 0 0 0 
0 0 0 0 0 0 0 0 0 
0 0 0 0 0 0 0 0 0 
0 0 0 0 0 0 0 0 0 
0 0 0 0 0 0 0 0 0 
0 0 0 0 0 0 0 0 0 
0 0 0 0 0 0 0 0 0 
0 0 0 0 0 0 0 0 0 
0 0 0 0 0 0 0 0 0 
0 0 0 0 0 0 0 0 0 
0 0 0 0 0 0 0 0 0 
0 0 0 0 0 0 0 0 0 
0 0 0 0 0 0 0 0 0 
0 0 0 0 0 0 0 0 0 
0 0 0 0 0 0 0 0 0 
0 0 0 0 0 0 0 0 0 
0 0 0 0 0 0 0 0 0 
0 0 0 0 0 0 0 0 0 
0 0 0 0 0 0 0 0 0 
0 0 0 0 0 0 0 0 0 
0 0 0 0 0 0 0 0 0 
0 0 0 0 0 0 0 0 0 
0 0 0 0 0 0 0 0 0 
0 0 0 0 0 0 0 0 0 
0 0 0 0 0 0 0 0 0 
0 0 0 0 0 0 0 0 0 
0 0 0 0 0 0 0 0 0 
0 0 0 0 0 0 0 0 0 
0 0 0 0 0 0 0 0 0 
0 0 0 0 0 0 0 0 0 
0 0 0 0 0 0 0 0 0 
0 0 0 0 0 0 0 0 0 
0 0 0 0 0 0 0 0 0 
0 0 0 0 0 0 0 0 0 
0 0 0 0 0 0 0 0 0 
0 0 0 0 0 0 0 0 0 
0 0 0 0 0 0 0 0 0 
0 0 0 0 0 0 0 0 0 
0 0 0 0 0 0 0 0 0 
0 0 0 0 0 0 0 0 0 
0 0 0 0 0 0 0 0 0 
0 0 0 0 0 0 0 0 0 
0 0 0 0 0 0 0 0 0 
0 0 0 0 0 0 0 0 0 
0 0 0 0 0 0 0 0 0 
0 0 0 0 0 0 0 0 0 
0 0 0 0 0 0 0 0 0 
0 0 0 
v 3 538 double
0.00182171 -0.000159439 2.38031e-05 -0.00162226 -0.000780152 6.65211e-08 0.000412202 -1.52005e-05 1.94055e-05 
0.000372072 -0.00221332 4.99813e-05 2.80572e-05 7.26129e-05 5.43959e-08 0.000300293 -0.00308292 3.22366e-05 
6.50408e-06 2.96228e-06 -5.42807e-06 0.00155446 9.65823e-05 -3.19914e-12 4.31386e-06 2.57825e-05 8.34803e-06 
1.18373e-05 2.86492e-06 -5.68411e-06 -0.00130364 -0.00366671 1.62059e-11 -0.00123352 -0.000225104 1.2463e-11 
0.00233978 -0.00183658 -0.000139265 4.38446e-06 5.06491e-06 1.22859e-06 5.87872e-06 2.92098e-06 3.05636e-06 
1.20145e-05 1.20579e-05 5.12962e-08 -0.00378426 3.71889e-05 0.000654193 8.10642e-06 6.69389e-06 -4.79865e-07 
-0.00139043 0.000834713 1.31584e-08 0.000418469 -0.00208425 0.000791148 -0.000374856 -0.00138392 0.00214602 
0.00228457 -0.00185879 0.00011144 0.000166409 0.0467324 0.0011607 0.000420676 -0.0019058 0.00102732 
0.000456837 -2.09432e-05 1.23704e-05 -3.33782e-06 1.05895e-05 -2.65772e-06 -0.0147282 -0.0217114 0.0139758 
-0.0397004 0.0051215 -0.0120513 0.000418411 -5.48665e-06 -5.07329e-06 0.000434373 5.00861e-06 3.69822e-05 
-2.60665e-06 7.70553e-06 -5.75544e-06 -0.000202135 -0.000833005 -0.000101105 -0.0088428 -0.012 0.0141931 
-0.000981713 -0.019468 0.0266062 0.0388688 -0.0458891 1.66182e-11 0.000493655 -9.07083e-06 6.60221e-05 
0.000746381 0.000425373 -0.000106323 0.00585108 0.00092507 -8.35142e-06 0.000861814 0.000798862 2.48116e-05 
0.000885449 0.000188865 1.43407e-05 1.18964e-05 2.5371e-06 1.8934e-06 0.000461912 -2.98872e-05 9.58038e-05 
0.00229513 0.000571208 -8.58032e-05 2.55109e-05 1.52663e-05 -5.41046e-06 -0.0201906 0.0172757 5.53839e-12 
0.000494853 -0.000178092 -4.16538e-05 9.15625e-05 0.000210409 1.53256e-05 -6.31807e-05 0.0128957 2.43731e-05 
0.11609 -0.0644235 -0.0812511 0.220218 -0.0929157 7.73469e-05 -0.00349715 0.0104128 -0.00271167 
0.0016572 -0.000295574 -6.8496e-05 0.00077359 0.000337906 -1.14605e-05 2.12198e-06 -0.000628751 0.000254503 
-4.87905e-06 0.00272913 5.17492e-06 2.32603e-06 0.011331 -0.00211717 0.00297938 0.000139743 -0.00378706 
0.00221741 0.000117327 -0.000317238 5.18137e-07 -1.75874e-05 -5.59311e-06 -0.0178459 -0.0219496 2.38565e-05 
8.90487e-06 -2.91206e-06 -2.21314e-05 0.0111882 -0.0119704 0.000164817 -0.0153853 -0.00344151 2.48763e-05 
-0.0186818 -0.0285978 -1.17722e-05 0.00934811 -0.00116495 -3.77728e-05 -0.0129367 -0.00266628 -1.24233e-05 
-0.00627487 -0.0144247 -4.21484e-05 0.00805521 -0.00565789 3.74441e-06 -1.91479e-05 -0.00126627 2.79081e-05 
0.00257421 -0.000931638 -2.8857e-05 0.0220166 -0.0162356 -8.62097e-13 -2.89766e-05 -0.00138546 -0.000114848 
-0.00316996 0.0322858 5.45888e-05 0.0141882 0.00450018 7.66846e-12 4.5854e-05 0.015276 -0.0105933 
0.0049816 0.000120973 -0.000102002 0.00813002 -0.019247 0.00362987 -1.10435e-06 0.015104 -0.0125435 
-0.241934 -0.100081 -0.104799 -0.000127211 -0.0210144 0.010331 -0.00489028 -0.0145392 3.10067e-05 
-0.0145682 0.00322712 0.0130498 -0.0233628 -0.0237445 0.00313628 -0.0462722 -0.0542549 -0.0599171 
-0.0200811 0.0211069 1.72726e-11 -0.00749112 -0.00196747 -8.51339e-05 -0.020533 -0.0211914 7.24722e-05 
-9.98172e-07 -0.117737 -2.99144e-07 -6.25609e-05 0.00114858 0.0105866 -0.0156325 -0.0171892 0.000334663 
0.206443 0.568514 -0.282239 0.0249725 -0.134806 -1.89584e-06 0.0714148 -0.0848205 -0.0400533 
-0.00278607 0.0144984 -0.000127838 -0.00290291 -0.0277269 -1.13334e-05 -0.0206427 -0.000683497 -2.42715e-05 
-0.0130931 -0.0116753 -2.53668e-05 0.058644 0.0468298 -1.65348e-05 -0.0670483 0.0332992 -4.68768e-05 
-0.0162316 0.0773761 -4.65033e-05 -0.00541682 0.00522023 -8.45671e-06 0.00163623 0.00535197 1.51568e-05 
-0.000235959 0.0300338 1.18553e-12 -0.00502618 0.0400142 -4.18713e-05 0.000714962 0.0378924 0.0190643 
-0.0639376 0.0741016 7.68151e-05 -0.0687415 0.0455308 2.73398e-05 7.0126e-05 0.0236914 -0.0318701 
-0.00759198 -0.0197366 -0.000222194 -0.0137431 -0.0331465 0.00826924 -0.0533091 0.0638891 -0.0164068 
-7.61061e-05 -0.00635728 0.000140742 0.047582 -0.0220995 -0.0296065 -6.99716e-05 0.0308151 -0.0213177 
0.0682561 -0.0614113 -0.0438443 0.00409681 -0.0278744 3.82539e-05 -9.0028e-05 0.0273425 2.04488e-05 
-0.0720001 0.0166619 -0.00821665 -0.00117766 -0.0167686 -4.70201e-05 -0.00864368 -0.0338064 -0.00661019 
1.89467e-05 -0.117748 2.12946e-05 0.0299607 -0.0463631 0.000124197 0.0143 -0.00207685 7.37643e-05 
-0.00686458 -0.0309841 0.000186955 0.000126989 0.0293003 8.31243e-05 0.00876493 -0.00156488 0.000178482 
0.00216091 -0.00744281 -7.21787e-05 0.000193817 0.0296132 -9.34848e-05 0.00173354 0.0308927 -1.36769e-06 
0.00944545 -0.00331836 -9.39413e-05 0.0244677 -0.0282192 0.000679052 0.0224262 -0.0305956 -7.0048e-06 
-0.0233224 -0.0337676 -0.00597139 -0.00423494 -0.0242151 5.75064e-12 -0.000109645 0.0288767 -0.00024399 
0.0329641 -0.0362356 0.0233981 -0.00732685 -0.00126532 -0.000856374 0.00190964 -0.0179889 -1.70738e-05 
0.0117097 -0.00432159 -2.69623e-05 0.0211528 -0.0261703 -0.000785646 -0.00458521 0.0014269 -0.00209001 
-0.000644781 0.0217588 0.00278059 0.0427168 0.051776 0.00379793 0.0165593 -0.0326172 -0.0103319 
-0.12061 0.190698 -0.123723 0.407217 -0.0280019 -0.0301971 0.0238708 -0.0234476 -0.00460709 
-0.000367962 -0.00770987 -8.87274e-05 0.00609197 -0.00514638 -6.75403e-05 0.201729 -0.194766 -0.0568087 
0.0785793 -0.0147958 6.24955e-12 0.000421495 -0.0210328 3.67586e-05 -0.00104434 -0.0326188 5.44189e-05 
-0.0259346 -0.0163389 0.00438011 -0.00692269 -0.0470334 0.0226782 0.00419075 -0.0256403 -0.00373085 
-0.0433771 -0.00371107 -3.27833e-06 0.00374871 -0.0572681 -0.000378948 0.00724075 0.0034867 -0.000270909 
-0.000352052 -0.014517 3.70118e-12 0.00216894 -0.0342934 -0.000478038 0.00165358 -0.0576366 7.46638e-05 
0.0131561 -0.0216537 -0.0196177 0.0114537 -0.0190067 -0.0013322 -0.00616203 -0.0350378 1.90761e-05 
-0.047484 -0.0126885 0.000142747 -0.00037675 -0.0147286 6.22669e-12 -0.00490016 0.0261635 8.83637e-05 
-0.0134091 -0.0117025 -0.000169393 -0.204659 -0.094733 -1.28133e-12 -0.0241738 0.00866271 0.000242715 
0.00379768 0.0332204 -6.78253e-05 0.00719479 -0.0275753 0.00819293 -6.0031e-05 0.025307 -0.00469691 
0.00885056 -0.00958355 4.28652e-05 0.011446 -0.0211115 -0.00421622 -0.581941 0.33147 -0.878873 
-0.0360339 0.0632218 0.00398583 -0.0187034 -0.0182453 0.00805567 -0.000334483 0.0227196 0.0046247 
0.000162867 0.0178859 0.0191776 0.00220043 -0.00587877 -0.000101776 -0.00161217 -0.0052376 -0.000361499 
-0.00129644 -0.00936752 0.000412244 0.017332 0.00387194 0.000124394 0.0172683 0.00792051 6.90907e-05 
0.0333168 -0.00966346 0.000124197 -2.23628e-05 -0.03972 -4.20781e-05 -0.00245562 -0.0384443 0.00443073 
0.0175116 0.00119711 0.000293758 0.030719 -0.038153 -0.00295549 0.0220295 0.0107399 0.000259315 
-0.00846466 0.00101095 0.000142432 -0.000398267 -0.0124149 -0.0463293 0.0790977 -0.107063 -0.0127273 
0.023314 -0.00633317 -0.000803569 0.0335567 -0.0488212 0.0184529 0.0385513 0.00795218 0.0182873 
-0.00976939 -0.0110752 -0.0121104 0.0109944 -0.0362994 0.00647351 0.0246365 -0.0473167 -0.00214517 
-1.21531e-05 0.00886057 -0.0164977 -0.004871 0.0157518 0.0160482 0.0102274 -0.00383213 -6.42872e-05 
0.00541454 0.00218872 -0.0028394 3.46755e-05 -0.0187241 -0.0219747 0.0578571 -0.00992124 -0.0131868 
-0.00279521 -0.00131195 0.000931869 0.0122416 0.00209355 -0.00263584 0.00797279 0.00232492 -0.00114889 
0.00259394 -0.0508106 -1.75468e-06 -3.59373e-05 0.00406821 -0.0008013 0.0566302 -0.0119692 0.0813335 
0.00692655 -0.0789447 -1.36135e-11 0.0388962 0.0168996 -0.000364918 -0.00351459 -0.055205 0.00013206 
-0.0704828 -0.0454858 -0.000228021 -0.0153803 -0.0209844 -0.043281 0.00742809 -0.00779569 -0.107279 
-0.0578426 -0.0145503 0.0181024 -0.0593623 -0.00516596 0.000120548 0.0162246 0.00856301 -0.000488506 
0.0282062 -0.00196118 0.000200778 0.030102 -0.117529 -0.000157333 -0.00142845 -0.0266326 -0.000668762 
0.0818886 0.000126969 0.000305816 0.00013316 -0.00387077 7.63495e-05 0.0734031 -0.0535084 -1.18852e-11 
0.0623019 -0.0477016 1.11809e-05 0.00170672 0.0286084 -3.7364e-05 -0.000343212 0.0466056 -9.2029e-12 
0.0304807 -0.0870757 -0.0715622 -0.0069918 -0.00234643 -0.000153874 -0.041309 -0.0832797 -0.042177 
-0.043464 0.00816383 1.05165e-11 -0.0125445 0.0453309 -1.01072e-11 -0.00948234 0.00165043 -0.000135031 
0.278038 0.00835638 -1.43742e-11 0.0120208 0.0137954 7.91352e-06 0.038536 -0.0589634 0.0471557 
0.0165448 -0.0299915 -0.0145459 9.62038e-05 0.0799203 -0.00470529 -0.0248694 -0.0150493 0.000188027 
-0.000113339 -0.00376951 0.000535366 -0.000498243 0.0268248 0.017037 -0.000670638 0.00646194 0.000121669 
0.00013236 0.00750325 -4.90432e-05 -0.0014979 -0.00961403 -0.000213898 0.000295871 0.00853949 0.000150212 
0.00705835 0.0269248 -1.15296e-11 -0.00887019 0.0132811 -0.000386569 -0.00876349 0.00782845 -1.34637e-05 
-0.0127634 0.00472956 0.000249747 -0.00738799 -0.00674121 -0.000100231 0.0137191 0.00524525 6.01773e-06 
0.0331412 0.020499 1.73007e-11 0.00606221 -0.00564778 -0.000247939 -0.0328003 0.0314784 5.93102e-12 
0.000260863 0.00982276 0.000318587 0.00772695 -0.00020778 0.000432137 -0.00904124 -0.00124562 -8.94269e-05 
-0.00516369 0.0253347 0.000191615 -0.0120766 -0.00997394 0.00529098 -0.00379992 0.0261154 -0.0138896 
0.00124835 0.0028875 6.11382e-06 -0.0529324 -0.0301401 -8.80727e-12 0.00215638 -0.00930131 -0.000255367 
-0.00513665 0.00396659 0.00661128 -0.0350192 -0.029414 1.37168e-11 -0.00373287 -0.00383056 0.000342347 
0.011392 0.00451111 -0.00423687 -0.0216615 0.00806435 -9.07623e-05 -0.0188335 -0.0649956 5.53455e-05 
-0.0085135 -0.0056481 -0.019199 0.125561 0.0563183 -0.225107 0.0670698 -0.0139119 -2.42282e-05 
0.000462502 -0.00508238 -0.000132036 -0.0531276 -0.00349752 -0.000436983 0.0110227 -0.0618736 0.000146243 
-0.0169561 0.0637092 0.000701366 -0.000138241 -0.0189261 0.000798813 0.00459427 -0.0218151 7.94815e-05 
-3.41007e-05 -0.0269534 5.43101e-12 -0.0687132 -0.0475606 0.000137805 0.00444014 -0.0390818 0.000616715 
0.00100364 -0.00626211 -0.000435708 0.00116356 -0.00592756 -0.000188648 -0.00462691 -0.0343147 0.00159387 
-0.0264028 -0.0153293 0.00478568 -0.0708538 -0.0549518 -0.310215 -0.0325733 -0.0490384 -0.00127907 
-0.0142738 -0.0460034 -0.000941468 -0.00837995 -0.0419694 -0.0199525 0.0125547 -0.0601442 0.00159834 
-0.0115981 -0.0516215 -0.00030286 -0.0224804 -0.0983097 -0.0479692 -0.000593471 -0.0179631 -0.00376792 
-0.0517873 0.0507973 -0.0124468 0.394879 0.243382 -0.153495 0.0308742 -0.0381954 0.0159802 
0.0194461 -0.0555942 0.0475781 -0.0227184 0.0720786 -0.0131277 -0.00586801 -0.00239452 0.00206117 
-0.00229973 -0.0434481 -0.0059471 -0.0116965 -0.00120734 -0.000192101 0.0364192 0.0213537 1.05614e-05 
-0.0131266 0.00849576 0.00330631 0.000182894 0.00236727 -0.00011853 0.0163988 -0.00647523 0.00413697 
0.0134601 0.0131121 -0.00021396 4.0684e-06 0.00228383 -2.11246e-05 0.00271777 0.000243926 -9.24536e-05 
0.0147785 0.00858809 -0.000195833 0.0112321 0.0150441 -0.000845436 0.0332769 0.00811768 -0.000358246 
0.0335946 -0.026789 4.84385e-05 0.0172174 0.00562113 -5.3692e-05 0.0164316 -0.0171372 7.56699e-05 
0.0146234 -0.0237802 -0.000145709 0.0131285 0.0070802 0.000765028 -0.0303334 0.0343909 0.000319216 
-0.152253 0.108794 -0.0363113 0.00980875 -0.00487839 8.66479e-05 -7.86745e-05 -0.00639429 -0.0114246 
-0.017421 -0.0262156 -0.0224998 -0.00296567 -0.0209096 0.00828959 -0.0087164 0.00923126 0.0131106 
0.032768 -0.0339232 3.70118e-12 0.0177362 0.0260956 0.000296019 -0.000737211 -0.0335233 0.00209524 
0.0387214 -0.00218883 0.00761885 0.0252699 0.015155 0.0576345 0.0354495 0.0590512 -0.00181311 
0.0388682 0.0491241 0.0221234 0.0274173 0.0893199 0.000744789 0.0248966 -0.0439775 -4.21605e-05 
-0.0147083 -0.0213303 -0.0014421 0.0169245 -0.0470686 0.000601161 0.0299288 -0.000156735 -4.20322e-05 
-0.0151079 -0.0257268 -2.85462e-12 0.0289171 0.00525902 0.000342878 0.0562517 -0.00785055 0.000551105 
-0.000521385 -0.0324442 0.000120585 -6.42454e-05 -0.0601631 6.70955e-12 0.0405353 0.0112049 0.000764573 
0.0142295 -0.0999657 6.96072e-12 0.01923 -0.00941957 -0.00172899 0.000358012 -0.0338696 0.0142787 
-0.00581135 -0.0188685 0.00285642 -0.0182795 -0.015756 -0.0001362 0.0275348 -0.0131303 -0.00251709 
-0.00158091 -0.00450979 0.000852995 -0.0476901 -0.0449739 -0.00368947 -0.000273074 -0.00349278 0.0165952 
-0.00158627 -0.011769 0.00721114 0.00461834 0.0185443 -0.00767323 0.000702868 -0.00611291 -0.0085891 
-0.0723668 -0.158986 -0.0811391 3.20451e-05 -0.00527282 -0.00362023 -0.0191761 -0.0162372 0.0014802 
0.00941111 -0.0238259 0.00716787 0.0136739 -0.0146963 -0.0200004 0.01221 -0.0150238 -0.0158753 
-0.00114413 -0.0190345 0.000491711 0.00656649 -0.0139288 0.000114363 -0.00416469 -0.00753179 -0.000335496 
-0.0209803 -0.0167275 0.00277521 -0.00771313 0.0114697 -0.000120775 0.00282228 -0.01905 0.000274511 
0.00169031 0.00324163 0.00018728 -0.0516087 0.0532162 1.54947e-11 0.0072245 -0.0156633 -7.07378e-05 
0.00311729 -0.0143858 8.07075e-05 -0.0153524 0.000605905 -0.000246349 7.35338e-05 0.000783802 1.13574e-11 
-0.00601369 0.128455 -1.09539e-11 0.00037054 -0.0222798 -0.000115989 0.0350565 -0.02242 -7.87415e-13 
0.00704313 -0.0152763 -0.000837693 -6.87412e-06 -0.020463 -0.000137183 -0.00689704 -0.0571217 -0.00482173 
0.000114249 -0.00858017 -1.63669e-05 0.0177372 -0.0757764 -0.0612588 0.0129952 -0.0518275 0.0078636 