# vtk DataFile Version 4.0
Generated by LIGGGHTS
ASCII
DATASET POLYDATA
POINTS 538 float
0.0101198 0.00465891 0.0116574 0.00406786 0.00438488 0.0108755 0.00636037 0.00213935 0.0121393 
0.0030562 0.00658615 0.0116573 0.000677965 0.00744395 0.0106779 0.00683224 0.00651813 0.0121393 
0.00216756 0.00344778 0.0106779 0.00418733 0.000770495 0.0107705 0.000770482 0.00600145 0.0107704 
0.00218172 0.00145881 0.0114587 0.00560832 0.00442921 0.010678 0.00386382 0.00275317 0.0107705 
0.0079095 0.0041872 0.0107704 0.000770496 0.00304154 0.0107704 0.000770471 0.000770482 0.0130412 
0.0011998 0.00452151 0.0107705 0.00251025 0.000994469 0.0138452 0.000875485 0.00314352 0.0124098 
0.00263669 0.00463731 0.0105965 0.00249684 0.00405181 0.0122023 0.00437296 0.00456748 0.0130576 
0.00865566 0.00471388 0.0137236 0.000994373 0.00644278 0.0133188 0.00345305 0.00262428 0.0132042 
0.00984812 0.0015553 0.0114587 0.00077049 0.00519926 0.0120861 0.0102229 0.00772077 0.0124521 
0.00304096 0.00570652 0.0140325 0.0087797 0.00087546 0.0134197 0.0115086 0.000994418 0.0132724 
0.000770494 0.00443534 0.0134244 0.00952778 0.00699431 0.0108754 0.0113586 0.00690955 0.0136965 
0.0120072 0.00583546 0.0126312 0.012055 0.00592962 0.0107705 0.0125823 0.00128495 0.0112839 
0.0151436 0.00618778 0.01113 0.0224379 0.00366096 0.0114587 0.0164943 0.00400379 0.0114587 
0.0191597 0.00462659 0.0112839 0.02287 0.00112985 0.0111299 0.0145039 0.000770462 0.0107704 
0.0160507 0.00193033 0.0107704 0.0208675 0.000875488 0.0108754 0.0216188 0.00548832 0.010678 
0.0167725 0.000677967 0.010678 0.0186142 0.00172837 0.0116574 0.0228583 0.0078433 0.01113 
0.0161424 0.00779002 0.0126341 0.0171923 0.00615673 0.0108755 0.0226656 0.00629725 0.0127674 
0.0133855 0.00408988 0.0116574 0.0198274 0.00729046 0.0114587 0.0230055 0.00192382 0.0130958 
0.0231245 0.00581559 0.0108754 0.0230055 0.00421832 0.0137794 0.0210048 0.00538373 0.0121119 
0.0150334 0.0016756 0.0127376 0.0214525 0.000875482 0.0125258 0.0130065 0.00817712 0.011883 
0.0200532 0.00099448 0.0137606 0.00888416 0.00914644 0.0112836 0.00470546 0.012137 0.0112839 
0.00793396 0.014353 0.0121393 0.00629147 0.00886543 0.0106779 0.00422927 0.0150551 0.0116574 
0.0110372 0.010847 0.0114587 0.00437616 0.00940201 0.0114587 0.00113002 0.0118186 0.01113 
0.00146135 0.00927218 0.0114588 0.00815113 0.0119539 0.010678 0.000770492 0.01365 0.0107705 
0.00187332 0.0155586 0.0108754 0.00954142 0.0123503 0.0107705 0.00114593 0.0145106 0.0124229 
0.00680791 0.0106586 0.0112839 0.0105143 0.0100817 0.0136011 0.000677977 0.0127729 0.0125977 
0.00367073 0.0111013 0.0130814 0.00873251 0.0111176 0.0129219 0.0109758 0.0133579 0.0109944 
0.00268555 0.0128559 0.0123998 0.00617978 0.0119279 0.0130687 0.00282324 0.016396 0.0136563 
0.0106524 0.0081517 0.010678 0.00456767 0.0130545 0.013365 0.0106845 0.0153255 0.0109944 
0.000524907 0.0157518 0.0112003 0.00077048 0.0159913 0.0135538 0.0116872 0.0151382 0.0132542 
0.016444 0.00907141 0.013977 0.0155257 0.00924716 0.0109944 0.0159052 0.0100466 0.012841 
0.0173247 0.0153403 0.0112839 0.0140672 0.0115477 0.0116573 0.0207141 0.0109557 0.0109944 
0.0154233 0.0164424 0.0108754 0.0177434 0.00879094 0.01113 0.0224409 0.0126353 0.0114587 
0.0186045 0.0103246 0.010678 0.0211312 0.00913676 0.0108754 0.0167622 0.0109695 0.01113 
0.0228699 0.0101034 0.01113 0.0204333 0.0154307 0.011883 0.0159237 0.0144328 0.0126538 
0.0187805 0.0125572 0.0114587 0.0162683 0.0131751 0.01113 0.0230022 0.0135851 0.01365 
0.0124052 0.0105431 0.0134724 0.0142757 0.0159235 0.0137286 0.0205979 0.0112419 0.013428 
0.0231246 0.0148253 0.0118895 0.0147828 0.0132975 0.0133431 0.0232282 0.0153296 0.0134897 
0.0141919 0.00995757 0.013625 0.0136298 0.0148338 0.0116574 0.0230055 0.0164633 0.0109944 
0.00142674 0.0167868 0.012271 0.00620129 0.0166999 0.0109944 0.0101626 0.0169031 0.0133548 
0.000770319 0.016949 0.0107704 0.00628241 0.0241555 0.0114587 0.00302266 0.0197988 0.0109944 
0.00824546 0.0247414 0.010678 0.00128392 0.0212427 0.0112839 0.00698416 0.0212613 0.0108753 
0.00422086 0.0223549 0.0112838 0.00113063 0.0187996 0.01113 0.00238819 0.0172321 0.0108754 
0.0052938 0.020198 0.01113 0.00984802 0.0202515 0.0107704 0.0104512 0.0187237 0.0108755 
0.0033251 0.0233251 0.0134862 0.00901901 0.0167104 0.0107705 0.00077048 0.0231646 0.0107704 
0.00606686 0.0216838 0.012449 0.00307974 0.0209068 0.0126452 0.00788441 0.0188573 0.0118852 
0.0043547 0.0179854 0.011353 0.00919356 0.0225699 0.011883 0.0048578 0.0195941 0.0134262 
0.00111677 0.0238315 0.0123674 0.00427519 0.0176018 0.0133697 0.00452656 0.0216678 0.0133104 
0.00517048 0.0230248 0.012891 0.00849524 0.0240782 0.0138319 0.00802813 0.0248179 0.0126768 
0.0110625 0.0245693 0.0109944 0.00296915 0.024597 0.0112839 0.0107172 0.02468 0.0134024 
0.0114971 0.0229856 0.010678 0.000875423 0.0249325 0.0108754 0.0119348 0.0172086 0.0112839 
0.015972 0.016771 0.0129379 0.0125021 0.0186334 0.0126509 0.0133047 0.0169939 0.0129395 
0.0172398 0.017748 0.0111301 0.0142046 0.0222952 0.0109944 0.0147494 0.0242137 0.0109944 
0.0231241 0.0228391 0.0108755 0.0194283 0.0187987 0.0112839 0.0119598 0.0204395 0.0114614 
0.0157159 0.0229905 0.0124376 0.0182021 0.0217643 0.0107705 0.0174888 0.0234958 0.01113 
0.018836 0.0170292 0.0106779 0.023337 0.0214054 0.0105965 0.0223423 0.0189457 0.0116574 
0.0143765 0.0184456 0.0114588 0.0165337 0.0218859 0.0107705 0.0162916 0.0193553 0.0107703 
0.0205982 0.0220189 0.011883 0.0142501 0.0207553 0.012282 0.023123 0.0168372 0.0128238 
0.0139477 0.020388 0.010678 0.0173214 0.0204901 0.0129365 0.0148882 0.0217374 0.0136023 
0.0174334 0.0248597 0.012842 0.0182675 0.0232037 0.013085 0.0231246 0.0211668 0.0125902 
0.0230056 0.0230044 0.0131133 0.00940992 0.0265344 0.0116574 0.00947809 0.0287935 0.0107704 
0.00748899 0.0287801 0.0112839 0.0085193 0.0322926 0.01113 0.00128402 0.031836 0.0112839 
0.00328569 0.0273887 0.0112839 0.000994461 0.0274828 0.0109944 0.00521452 0.0288882 0.0108754 
0.00586905 0.0312067 0.0116574 0.00579624 0.0268491 0.0112838 0.0106815 0.0316343 0.01113 
0.00912355 0.0303973 0.0108755 0.00165739 0.02933 0.0127779 0.00427121 0.0258631 0.0130994 
0.00356988 0.0297699 0.0109944 0.00424393 0.029999 0.0135733 0.00142005 0.0260169 0.0124722 
0.00326249 0.0311924 0.0121685 0.00712412 0.0263895 0.0132467 0.00738239 0.0258609 0.010678 
0.000770477 0.0272816 0.0137334 0.00246175 0.0322615 0.0125894 0.00339558 0.0326417 0.0109944 
0.00912508 0.0288287 0.0126926 0.000596487 0.0313109 0.0129535 0.0122157 0.0316501 0.0131163 
0.0117171 0.0291007 0.0116574 0.00733823 0.0332783 0.0122462 0.00689888 0.0332184 0.0107704 
0.0116709 0.0268018 0.0107705 0.000875467 0.0333445 0.0127741 0.0189452 0.0253673 0.0132296 
0.0120603 0.0309415 0.010525 0.022311 0.0251093 0.0116574 0.0129755 0.025113 0.0109944 
0.0167898 0.0256825 0.01113 0.012255 0.026412 0.0127221 0.0203879 0.0260867 0.0125521 
0.0152524 0.0253088 0.0127441 0.0191586 0.0252325 0.0112839 0.0145698 0.026302 0.0109944 
0.0160213 0.0276615 0.0109944 0.0182354 0.0281136 0.0112838 0.0144542 0.0290895 0.01113 
0.0128812 0.0321458 0.0109944 0.0225405 0.03147 0.0114587 0.0197403 0.0270058 0.010678 
0.0152133 0.0315427 0.0114587 0.0196254 0.0313034 0.0114587 0.0234036 0.0267709 0.0105964 
0.0164091 0.0293791 0.012227 0.0131198 0.0273277 0.0107705 0.0183887 0.0297666 0.0124974 
0.017213 0.0317152 0.010678 0.0233222 0.0280402 0.0106778 0.0212639 0.0284583 0.012143 
0.0135928 0.0303748 0.0122176 0.0176341 0.0302285 0.0108755 0.017405 0.0312344 0.0125177 
0.014116 0.0265856 0.013575 0.018875 0.0323045 0.0134294 0.0197194 0.0334217 0.0107704 
0.023322 0.0331676 0.0124948 0.0232295 0.0269014 0.0130138 0.000994453 0.0340774 0.0109944 
0.000875465 0.0360273 0.0108754 0.00273525 0.034263 0.0107704 0.000875464 0.0377783 0.0108754 
0.00600973 0.0353677 0.010678 0.011568 0.0406035 0.0121393 0.00787108 0.0348112 0.01113 
0.0069361 0.0373837 0.0116574 0.00382316 0.0362441 0.0116574 0.00675246 0.0406935 0.0116574 
0.00934318 0.036477 0.0109944 0.00394705 0.0393515 0.0114587 0.0093448 0.0385912 0.0109944 
0.00128385 0.0399832 0.0112839 0.00514112 0.0338452 0.01113 0.00128409 0.03546 0.0129185 
0.0102477 0.0340822 0.0123908 0.00492698 0.0380505 0.013471 0.0048383 0.0403825 0.0136598 
0.00190172 0.0380414 0.0125783 0.00935593 0.0401318 0.0105965 0.00868908 0.0397027 0.0134004 
0.00544911 0.0356535 0.0135076 0.0092966 0.0414053 0.0106779 0.0123161 0.0339243 0.0108755 
0.00262124 0.0407534 0.0131847 0.0173914 0.0340415 0.011883 0.0142664 0.0339178 0.0109944 
0.0211921 0.0335008 0.0117398 0.0135919 0.0386963 0.0133081 0.0179718 0.0367188 0.0109944 
0.0230056 0.0338352 0.0109944 0.0128165 0.0364653 0.011883 0.0150951 0.0379816 0.0109944 
0.0141456 0.0410441 0.0107705 0.0196137 0.0390015 0.011883 0.0202352 0.0357455 0.0114587 
0.0232284 0.0402922 0.0107705 0.01552 0.0360386 0.0109944 0.017262 0.0383191 0.0107705 
0.0226566 0.0383575 0.0112845 0.022868 0.035951 0.01113 0.0179172 0.0409292 0.0108754 
0.0222819 0.0403224 0.0129659 0.0147314 0.0397808 0.012064 0.0161265 0.0393962 0.0107705 
0.0159873 0.0414112 0.01113 0.0170278 0.0399522 0.0120305 0.0147344 0.0378925 0.0125414 
0.0142609 0.0414449 0.0128523 0.00585941 0.0493185 0.0121384 0.00337144 0.0498326 0.0135864 
0.00761522 0.0430778 0.0132934 0.00281528 0.0438494 0.013557 0.00849545 0.0484912 0.0124926 
0.00582252 0.0477541 0.0127285 0.010298 0.0466062 0.0130812 0.00471431 0.0435368 0.0128381 
0.00662777 0.0436984 0.012105 0.00286967 0.0462244 0.0109944 0.0104888 0.0478535 0.0114587 
0.00151306 0.0455219 0.012268 0.000875456 0.0465947 0.0108754 0.00128405 0.0480669 0.0124014 
0.00370894 0.0444212 0.0109944 0.000770439 0.0449555 0.0107704 0.00711981 0.0494167 0.0109944 
0.00165748 0.0428768 0.0116574 0.011131 0.0446014 0.011883 0.00835604 0.0455026 0.01113 
0.005778 0.0456554 0.0114587 0.00786665 0.0475656 0.0109944 0.00383375 0.0484321 0.0114587 
0.00603076 0.0479014 0.0108754 0.00841119 0.0430936 0.0112839 0.0055936 0.0433408 0.0108754 
[...]
POINT_DATA 538
FIELD FieldData 7
id 1 538 int
1 2 3 4 5 6 7 8 9 
10 11 12 13 14 15 16 17 18 
19 20 21 22 24 25 26 29 31 
33 34 35 38 39 45 55 56 57 
58 59 60 61 62 63 64 65 66 
67 68 69 70 71 72 73 76 77 
80 81 82 85 90 95 96 106 107 
108 109 110 111 112 113 114 115 116 
117 118 119 120 121 122 124 126 128 
129 131 132 133 134 141 144 155 162 
163 164 165 166 167 168 169 170 171 
172 173 174 175 176 177 178 179 181 
184 187 190 191 192 194 197 198 200 
219 220 222 223 224 225 226 227 228 
229 230 231 232 233 234 235 236 237 
238 239 240 241 242 244 245 248 250 
251 254 262 264 265 270 273 275 276 
279 283 284 285 286 287 288 289 290 
291 292 293 294 295 296 297 298 299 
300 301 302 303 305 306 308 309 310 
317 330 331 332 333 334 335 336 337 
338 339 340 341 342 343 344 346 347 
348 349 351 353 357 359 362 366 368 
375 376 379 380 382 385 386 387 388 
389 390 391 392 393 394 395 396 397 
398 399 400 401 402 403 404 405 406 
408 409 410 411 413 415 416 417 418 
419 421 435 436 437 439 440 441 442 
443 444 445 446 447 448 449 450 451 
453 455 456 457 458 459 460 466 478 
479 497 498 499 500 501 502 503 504 
505 506 507 508 509 510 511 513 514 
515 516 517 522 523 524 535 486 487 
488 489 490 491 492 493 494 495 496 
512 518 519 520 521 525 526 527 528 
529 530 531 532 533 534 536 537 538 
438 452 454 461 462 463 464 465 467 
468 469 470 471 472 473 474 475 476 
477 480 481 482 483 484 485 355 356 
358 360 361 363 364 365 367 369 370 
371 372 373 374 377 378 381 383 384 
407 412 414 420 422 423 424 425 426 
427 428 429 430 431 432 433 434 266 
267 268 269 271 272 274 277 278 280 
281 282 304 307 311 312 313 314 315 
316 318 319 320 321 322 323 324 325 
326 327 328 329 345 350 352 354 207 
208 209 210 211 212 213 214 215 216 
217 218 221 243 246 247 249 252 253 
255 256 257 258 259 260 261 263 142 
143 145 146 147 148 149 150 151 152 
153 154 156 157 158 159 160 161 180 
182 183 185 186 188 189 193 195 196 
199 201 202 203 204 205 206 86 87 
88 89 91 92 93 94 97 98 99 
100 101 102 103 104 105 123 125 127 
130 135 136 137 138 139 140 23 27 
28 30 32 36 37 40 41 42 43 
44 46 47 48 49 50 51 52 53 
54 74 75 78 79 83 84 
type 1 538 int
1 1 1 1 1 1 1 1 1 
1 1 1 1 1 1 1 1 1 
1 1 1 1 1 1 1 1 1 
1 1 1 1 1 1 1 1 1 
1 1 1 1 1 1 1 1 1 
1 1 1 1 1 1 1 1 1 
1 1 1 1 1 1 1 1 1 
1 1 1 1 1 1 1 1 1 
1 1 1 1 1 1 1 1 1 
1 1 1 1 1 1 1 1 1 
1 1 1 1 1 1 1 1 1 
1 1 1 1 1 1 1 1 1 
1 1 1 1 1 1 1 1 1 
1 1 1 1 1 1 1 1 1 
1 1 1 1 1 1 1 1 1 
1 1 1 1 1 1 1 1 1 
1 1 1 1 1 1 1 1 1 
1 1 1 1 1 1 1 1 1 
1 1 1 1 1 1 1 1 1 
1 1 1 1 1 1 1 1 1 
1 1 1 1 1 1 1 1 1 
1 1 1 1 1 1 1 1 1 
1 1 1 1 1 1 1 1 1 
1 1 1 1 1 1 1 1 1 
1 1 1 1 1 1 1 1 1 
1 1 1 1 1 1 1 1 1 
1 1 1 1 1 1 1 1 1 
1 1 1 1 1 1 1 1 1 
1 1 1 1 1 1 1 1 1 
1 1 1 1 1 1 1 1 1 
1 1 1 1 1 1 1 1 1 
1 1 1 1 1 1 1 1 1 
1 1 1 1 1 1 1 1 1 
1 1 1 1 1 1 1 1 1 
1 1 1 1 1 1 1 1 1 
1 1 1 1 1 1 1 1 1 
1 1 1 1 1 1 1 1 1 
1 1 1 1 1 1 1 1 1 
1 1 1 1 1 1 1 1 1 
1 1 1 1 1 1 1 1 1 
1 1 1 1 1 1 1 1 1 
1 1 1 1 1 1 1 1 1 
1 1 1 1 1 1 1 1 1 
1 1 1 1 1 1 1 1 1 
1 1 1 1 1 1 1 1 1 
1 1 1 1 1 1 1 1 1 
1 1 1 1 1 1 1 1 1 
1 1 1 1 1 1 1 1 1 
1 1 1 1 1 1 1 1 1 
1 1 1 1 1 1 1 1 1 
1 1 1 1 1 1 1 1 1 
1 1 1 1 1 1 1 1 1 
1 1 1 1 1 1 1 1 1 
1 1 1 1 1 1 1 1 1 
1 1 1 1 1 1 1 1 1 
1 1 1 1 1 1 1 1 1 
1 1 1 1 1 1 1 1 1 
1 1 1 1 1 1 1 1 1 
1 1 1 1 1 1 1 1 1 
1 1 1 1 1 1 1 
i 3 538 int
0 0 0 0 0 0 0 0 0 
0 0 0 0 0 0 0 0 0 
0 0 0 0 0 0 0 0 0 
0 0 0 0 0 0 0 0 0 
0 0 0 0 0 0 0 0 0 
0 0 0 0 0 0 0 0 0 
0 0 0 0 0 0 0 0 0 
0 0 0 0 0 0 0 0 0 
0 0 0 0 0 0 0 0 0 
0 0 0 0 0 0 0 0 0 
0 0 0 0 0 0 0 0 0 
0 0 0 0 0 0 0 0 0 
0 0 0 0 0 0 0 0 0 
0 0 0 0 0 0 0 0 0 
0 0 0 0 0 0 0 0 0 
0 0 0 0 0 0 0 0 0 
0 0 0 0 0 0 0 0 0 
0 0 0 0 0 0 0 0 0 
0 0 0 0 0 0 0 0 0 
0 0 0 0 0 0 0 0 0 
0 0 0 0 0 0 0 0 0 
0 0 0 0 0 0 0 0 0 
0 0 0 0 0 0 0 0 0 
0 0 0 0 0 0 0 0 0 
0 0 0 0 0 0 0 0 0 
0 0 0 0 0 0 0 0 0 
0 0 0 0 0 0 0 0 0 
0 0 0 0 0 0 0 0 0 
0 0 0 0 0 0 0 0 0 
0 0 0 0 0 0 0 0 0 
0 0 0 0 0 0 0 0 0 
0 0 0 0 0 0 0 0 0 
0 0 0 0 0 0 0 0 0 
0 0 0 0 0 0 0 0 0 
0 0 0 0 0 0 0 0 0 
0 0 0 0 0 0 0 0 0 
0 0 0 0 0 0 0 0 0 
0 0 0 0 0 0 0 0 0 
0 0 0 0 0 0 0 0 0 
0 0 0 0 0 0 0 0 0 
0 0 0 0 0 0 0 0 0 
0 0 0 0 0 0 0 0 0 
0 0 0 0 0 0 0 0 0 
0 0 0 0 0 0 0 0 0 
0 0 0 0 0 0 0 0 0 
0 0 0 0 0 0 0 0 0 
0 0 0 0 0 0 0 0 0 
0 0 0 0 0 0 0 0 0 
0 0 0 0 0 0 0 0 0 
0 0 0 0 0 0 0 0 0 
0 0 0 0 0 0 0 0 0 
0 0 0 0 0 0 0 0 0 
0 0 0 0 0 0 0 0 0 
0 0 0 0 0 0 0 0 0 
0 0 0 0 0 0 0 0 0 
0 0 0 0 0 0 0 0 0 
0 0 0 0 0 0 0 0 0 
0 0 0 0 0 0 0 0 0 
0 0 0 0 0 0 0 0 0 
0 0 0 0 0 0 0 0 0 
0 0 0 0 0 0 0 0 0 
0 0 0 0 0 0 0 0 0 
0 0 0 0 0 0 0 0 0 
0 0 0 0 0 0 0 0 0 
0 0 0 0 0 0 0 0 0 
0 0 0 0 0 0 0 0 0 
0 0 0 0 0 0 0 0 0 
0 0 0 0 0 0 0 0 0 
0 0 0 0 0 0 0 0 0 
0 0 0 0 0 0 0 0 0 
0 0 0 0 0 0 0 0 0 
0 0 0 0 0 0 0 0 0 
0 0 0 0 0 0 0 0 0 
0 0 0 0 0 0 0 0 0 
0 0 0 0 0 0 0 0 0 
0 0 0 0 0 0 0 0 0 
0 0 0 0 0 0 0 0 0 
0 0 0 0 0 0 0 0 0 
0 0 0 0 0 0 0 0 0 
0 0 0 0 0 0 0 0 0 
0 0 0 0 0 0 0 0 0 
0 0 0 0 0 0 0 0 0 
0 0 0 0 0 0 0 0 0 
0 0 0 0 0 0 0 0 0 
0 0 0 0 0 0 0 0 0 
0 0 0 0 0 0 0 0 0 
0 0 0 0 0 0 0 0 0 
0 0 0 0 0 0 0 0 0 
0 0 0 0 0 0 0 0 0 
0 0 0 0 0 0 0 0 0 
0 0 0 0 0 0 0 0 0 
0 0 0 0 0 0 0 0 0 
0 0 0 0 0 0 0 0 0 
0 0 0 0 0 0 0 0 0 
0 0 0 0 0 0 0 0 0 
0 0 0 0 0 0 0 0 0 
0 0 0 0 0 0 0 0 0 
0 0 0 0 0 0 0 0 0 
0 0 0 0 0 0 0 0 0 
0 0 0 0 0 0 0 0 0 
0 0 0 0 0 0 0 0 0 
0 0 0 0 0 0 0 0 0 
0 0 0 0 0 0 0 0 0 
0 0 0 0 0 0 0 0 0 
0 0 0 0 0 0 0 0 0 
0 0 0 0 0 0 0 0 0 
0 0 0 0 0 0 0 0 0 
0 0 0 0 0 0 0 0 0 
0 0 0 0 0 0 0 0 0 
0 0 0 0 0 0 0 0 0 
0 0 0 0 0 0 0 0 0 
0 0 0 0 0 0 0 0 0 
0 0 0 0 0 0 0 0 0 
0 0 0 0 0 0 0 0 0 
0 0 0 0 0 0 0 0 0 
0 0 0 0 0 0 0 0 0 
0 0 0 0 0 0 0 0 0 
0 0 0 0 0 0 0 0 0 
0 0 0 0 0 0 0 0 0 
0 0 0 0 0 0 0 0 0 
0 0 0 0 0 0 0 0 0 
0 0 0 0 0 0 0 0 0 
0 0 0 0 0 0 0 0 0 
0 0 0 0 0 0 0 0 0 
0 0 0 0 0 0 0 0 0 
0 0 0 0 0 0 0 0 0 
0 0 0 0 0 0 0 0 0 
0 0 0 0 0 0 0 0 0 
0 0 0 0 0 0 0 0 0 
0 0 0 0 0 0 0 0 0 
0 0 0 0 0 0 0 0 0 
0 0 0 0 0 0 0 0 0 
0 0 0 0 0 0 0 0 0 
0 0 0 0 0 0 0 0 0 
0 0 0 0 0 0 0 0 0 
0 0 0 0 0 0 0 0 0 
0 0 0 0 0 0 0 0 0 
0 0 0 0 0 0 0 0 0 
0 0 0 0 0 0 0 0 0 
0 0 0 0 0 0 0 0 0 
0 0 0 0 0 0 0 0 0 
0 0 0 0 0 0 0 0 0 
0 0 0 0 0 0 0 0 0 
0 0 0 0 0 0 0 0 0 
0 0 0 0 0 0 0 0 0 
0 0 0 0 0 0 0 0 0 
0 0 0 0 0 0 0 0 0 
0 0 0 0 0 0 0 0 0 
0 0 0 0 0 0 0 0 0 
0 0 0 0 0 0 0 0 0 
0 0 0 0 0 0 0 0 0 
0 0 0 0 0 0 0 0 0 
0 0 0 0 0 0 0 0 0 
0 0 0 0 0 0 0 0 0 
0 0 0 0 0 0 0 0 0 
0 0 0 0 0 0 0 0 0 
0 0 0 0 0 0 0 0 0 
0 0 0 0 0 0 0 0 0 
0 0 0 0 0 0 0 0 0 
0 0 0 0 0 0 0 0 0 
0 0 0 0 0 0 0 0 0 
0 0 0 0 0 0 0 0 0 
0 0 0 0 0 0 0 0 0 
0 0 0 0 0 0 0 0 0 
0 0 0 0 0 0 0 0 0 
0 0 0 0 0 0 0 0 0 
0 0 0 0 0 0 0 0 0 
0 0 0 0 0 0 0 0 0 
0 0 0 0 0 0 0 0 0 
0 0 0 0 0 0 0 0 0 
0 0 0 0 0 0 0 0 0 
0 0 0 0 0 0 0 0 0 
0 0 0 0 0 0 0 0 0 
0 0 0 0 0 0 0 0 0 
0 0 0 0 0 0 0 0 0 
0 0 0 0 0 0 0 0 0 
0 0 0 0 0 0 0 0 0 
0 0 0 0 0 0 0 0 0 
0 0 0 0 0 0 0 0 0 
0 0 0 
v 3 538 double
0.000553751 -0.0213204 -0.000112063 0.0894949 -0.00067821 -8.65508e-12 0.0229215 -0.000648443 0.000200944 
0.0235134 0.0201343 0.00334983 -1.5903e-05 -0.00888669 2.43172e-05 0.0516891 0.0498824 0.000121266 
-0.00258707 0.00109442 6.85567e-05 0.0232665 8.61744e-05 9.69312e-05 -0.00039405 -0.00906637 -1.63602e-05 
0.0229443 0.00100007 -0.000151141 0.0891787 0.0240814 -1.92884e-12 0.0055404 0.00650542 1.91502e-12 
-0.00844459 0.0224875 -0.000216446 -0.000575863 -0.0188015 -0.0038376 -7.25604e-05 -3.13321e-05 -0.0213282 
-0.0194709 -0.0140952 0.000399074 0.0620124 0.00154819 -0.00612383 0.002219 -0.00671231 -0.00814006 
0.0779567 -0.0198068 -9.99416e-12 -0.0139168 0.0253897 -0.00711915 0.0231822 0.0112085 0.00447938 
-0.186051 -0.300464 -0.125159 0.00044635 0.0502002 -0.0197373 0.0121139 0.0194289 -0.0396374 
0.0236179 -0.0259385 -2.55089e-06 0.000446547 -0.00467439 0.00282349 0.0820061 0.0235077 -0.0120483 
-0.181734 -0.157686 -0.0634099 0.0212351 0.000273534 0.00755239 0.148553 -0.00410938 0.0611401 
-0.000184145 -0.0127743 -0.00144322 0.0644046 -0.00334446 0.00264698 0.027364 0.00355604 0.0195813 
-0.0117455 -0.0256593 0.0280582 -0.00679449 0.00558257 8.30773e-12 0.032357 -0.00315829 -0.000265307 
-0.0234377 0.0246536 0.000117713 -0.0315984 -0.000764685 -0.000460339 0.00576129 0.0424184 0.00025497 
0.0322685 -0.0708834 -2.44152e-05 0.000141127 0.00196486 -0.00130563 0.0333643 4.69135e-05 9.39753e-05 
0.080986 0.0269385 -0.000376659 -0.00851818 3.03963e-06 -0.000134644 -0.0201884 0.0172795 -1.66832e-08 
0.0328056 -0.000309554 4.97685e-06 0.00774672 0.0433642 -2.90499e-05 0.0316594 -0.040516 0.000173877 
0.275221 -0.0169021 -0.154965 -0.0240593 0.0424159 -8.65508e-12 0.0264596 -0.0432221 -0.00248652 
0.00376651 0.00358832 0.000255226 -0.0340138 -0.028054 -0.000358728 0.000157749 -0.0156931 0.00372405 
-0.000109807 -0.0789226 7.52799e-05 0.000102367 0.246185 -0.0673515 -0.012399 0.000112172 0.0351064 
0.0495913 0.0280505 -0.0169726 -0.00107156 0.000692169 -0.00287752 0.099419 -0.0823494 -0.000460599 
-0.00477974 -0.000206211 -0.00659636 0.000580899 -0.0415493 0.00445136 -0.0234839 0.0199971 0.00068186 
0.0424929 -0.0747962 -0.00224258 0.00381194 0.0384721 -4.6842e-05 0.0271959 0.0291007 0.000648114 
0.0929475 -0.0361035 0.000948959 0.00345589 0.0358128 0.00141125 0.00319196 -0.00883677 0.00193476 
0.00499625 -0.0107094 -6.25456e-06 0.119043 -0.0739539 0.00194383 -0.000171454 -0.0111273 -0.000480211 
0.0203759 0.0329849 0.00372721 0.0964725 -0.0500023 0.000206273 -0.0288471 0.0337689 -0.0181694 
0.0083595 0.0359206 0.00134427 -0.106306 -0.573054 -0.238631 0.000425725 0.0250588 -0.0196035 
-0.0915833 0.00530671 -0.0025546 0.0749633 -0.0617769 0.06031 0.163014 -0.139778 5.89892e-08 
-0.019257 0.0489716 -0.0131663 -0.0472862 -0.00788621 0.0123452 0.0492332 0.105759 -0.0358494 
0.0110523 -0.0921849 5.18281e-12 -0.0233775 0.0232818 0.00404464 0.0695489 -0.15163 2.58092e-06 
0.00765234 0.0253252 -0.00647082 -2.20439e-06 0.0477115 -0.0267131 -0.367573 -0.321576 -0.458451 
0.432593 -0.0489361 -0.178019 0.0371439 0.0641901 -0.000397549 0.127936 -0.0501959 -0.0196582 
0.0269072 0.00215764 0.000414014 0.102086 -0.0769973 -0.000768513 -0.06653 -0.0897078 -6.17727e-05 
0.00710153 -0.040227 0.000550798 0.212231 0.307094 -0.00198906 -0.100118 -0.0556608 2.79326e-05 
-0.0825016 -0.0138473 1.33612e-11 0.0191312 -0.0687009 -0.000527275 0.132826 -0.00598957 0.00244738 
0.000456481 -0.0393517 0.000154187 0.0257002 0.0800801 0.000554089 0.0523862 -0.0295484 0.0072086 
0.0994201 0.0384362 -4.88639e-05 0.065217 -0.0195488 -0.000229619 -0.0101764 0.00388177 -0.0488313 
0.130957 0.0134724 -0.0164718 0.0228278 -0.0820419 0.00489497 -0.110557 -0.110473 0.000178365 
-0.00261397 -0.0597131 -0.129728 -0.00882424 0.00367201 -0.0365726 -0.0102946 0.00238591 0.0301225 
0.126827 -0.0901418 -0.0118068 0.0460503 -0.0854482 -0.000412279 0.000612661 0.0112958 2.40189e-07 
0.00537219 0.094821 0.00526223 0.104396 -0.0285225 -0.00224713 -0.00114554 -0.0404038 -0.000239289 
0.00216737 0.0310014 -0.000362559 -0.0370857 -0.0522882 -0.000315891 -0.0242236 0.0480121 -0.0003203 
-0.00146641 7.01748e-05 8.02747e-12 -0.000324001 0.0776288 0.000759275 -0.120991 -0.0470136 -0.00318127 
-0.0919347 0.0112896 0.00147681 0.000644249 0.0222245 -1.60041e-11 0.0041967 0.0380359 0.000897277 
0.0875156 0.100043 -0.000689266 0.0762256 -0.0723514 -0.019247 0.0373579 -0.0871037 -0.000103093 
-0.298882 -0.0884569 -0.0366748 -0.00423494 -0.0242151 5.75064e-12 0.000523308 0.079194 0.000888816 
-0.00327557 0.182803 -0.0011459 -0.0478904 -0.0186445 0.0443055 0.0400742 0.0152717 0.012267 
0.0916074 0.0589357 -0.380462 -0.0770763 -0.126476 -0.00296719 -0.0812604 -0.105033 -0.0879377 
0.0158795 0.0565563 0.00817676 0.250835 -0.255259 -0.433664 -0.0488781 0.10072 -0.0854807 
-0.307217 0.0257789 -0.149161 0.0373453 0.00447331 -0.0716577 0.00692028 -0.0493475 -0.0721973 
-0.121082 -0.0727706 0.00282868 0.00744008 0.0667799 0.00120038 0.190704 -0.134383 -0.243437 
0.0744217 -0.00473499 -0.00350617 0.00137148 0.0388955 -0.000583925 0.0103906 -0.112323 -0.000352172 
0.00839714 -0.0548484 0.00315237 -0.0661684 -0.00502991 -0.0813198 0.01092 -0.0852402 -0.0105027 
-0.0394532 -0.00035722 0.000299033 -0.226886 0.0248702 4.38061e-12 0.0715042 -0.0393386 0.00128378 
-7.2996e-05 -0.00220841 5.42531e-12 0.005583 -0.000988959 0.000516419 0.0487669 0.0980632 -0.00309745 
-0.0657424 -0.0421318 0.093324 -0.03512 -0.00665944 8.06547e-08 -0.138327 -0.0299355 -0.000121526 
-0.034808 0.0147866 -0.00152999 -0.000516495 -0.0029923 1.17655e-11 0.00464024 0.0164707 -0.00114353 
-0.0192871 -0.0530109 -0.000307855 -0.0531437 -0.107205 5.11138e-12 -0.0425476 -0.00213344 0.000639278 
-0.0311334 -0.00338505 -0.00115447 0.082199 -0.027817 0.0311968 -0.0113472 0.00970072 -0.0592632 
0.0785547 -0.0280323 0.000115598 -0.0163384 -0.0298793 0.00353672 -0.0755993 -0.0118614 0.12181 
0.0600314 0.0488248 0.0358227 -0.051442 -0.0137167 -0.0325408 0.00093324 0.017313 -0.0848521 
7.7261e-05 -0.0500003 -0.0258697 -0.0179505 0.0104918 -6.73027e-05 -0.0192831 0.00873063 -0.000525741 
-0.0186342 -0.0241652 -8.50395e-05 0.0384415 0.0225767 0.000225193 0.00193127 0.0557105 0.000188766 
-0.00333365 -0.121562 -0.00117198 0.000657052 -0.160379 0.00106496 0.0585945 -0.0253503 0.00220994 
0.0100257 -0.00665989 -0.000418573 0.0108404 -0.0443985 -0.000441903 0.0231482 -0.0376169 0.000993968 
-0.0136334 0.00822154 -8.44287e-05 -0.00101702 -0.0257601 -0.135406 0.0552849 -0.0384475 0.0417537 
0.108242 0.0749202 0.00193237 0.052012 -0.251586 -0.12084 -0.05341 -0.0795451 0.0979598 
0.00028425 0.0285307 0.0326414 -0.0128328 -0.0804822 0.00836864 0.0326297 -0.0160632 1.37168e-11 
0.000576663 0.0391026 0.0070875 0.318955 0.445845 -0.412981 0.0227377 -0.000112003 -2.47691e-05 
0.522089 0.355416 -0.64353 -5.78785e-05 -0.0352631 -0.0291708 0.0732931 -0.14294 -0.0388346 
-0.0104561 -0.0541334 -0.000693836 0.104662 0.141121 -0.0331381 0.0194828 -0.0110267 -0.000544137 
0.0375834 -0.0867429 -1.59846e-11 7.0969e-05 0.0553559 8.7203e-05 0.072539 -0.0217682 -0.00588149 
0.03232 -0.0337933 -1.40536e-11 0.0140416 -0.0273382 -5.39086e-05 -0.054308 -0.283621 -0.000657085 
0.0499866 -0.0346968 -0.000256243 0.166719 -0.0514985 -0.0845524 -0.0171081 -0.0386125 -0.0561228 
0.0890724 -0.0841838 0.0255108 0.0266642 -0.187796 0.000460676 -0.0757628 -0.243444 0.000315238 
-0.157217 -0.145968 0.000952691 -0.145954 -0.155924 -0.00512846 -0.003318 0.0356433 0.0016809 
0.0694828 0.00488774 -0.00242717 -0.0019278 -0.0318994 -0.000986627 -0.166014 -0.124628 -4.06234e-12 
0.0726926 0.0169888 -0.0025558 -0.0243756 0.0847178 -1.37972e-05 -0.000832696 -0.0159302 0.000352757 
-0.0218498 -0.0266694 0.0621647 0.0166744 -0.0283711 -2.47804e-11 0.299725 -0.203305 -0.040271 
0.11116 0.0621016 1.19386e-11 -0.000942253 -0.0151908 0.000831781 -0.118203 -0.0179007 -0.161025 
0.124729 -0.171984 -0.188262 -0.00254593 0.00218387 -4.51752e-08 0.390093 -0.104229 -0.643812 
0.29683 0.420701 -0.46528 0.184625 0.193135 0.0245142 0.0454815 0.0814902 -0.000445376 
0.00218132 -0.0345371 -0.00253112 -0.000172043 0.137719 -0.208117 -0.000623548 0.0554109 9.35956e-05 
-0.000520694 0.0220179 0.000124277 0.00547677 -0.00722855 -0.00011196 3.23324e-05 0.021984 8.56244e-05 
0.00182375 0.018926 -1.29519e-11 -0.0391094 0.0089719 0.000592854 -0.0571593 0.0362835 0.000222711 
-0.0131911 0.0526595 -0.000264211 0.00895632 -0.0096609 0.000361856 -0.0327668 0.0524033 -5.6481e-05 
0.000948005 0.0391882 1.1099e-11 -0.00393103 -0.00915367 -0.000216283 -0.00842821 0.014022 1.2391e-11 
-0.000801291 0.00125767 -0.000280054 0.0235231 -0.00198629 1.70845e-05 -0.00638475 0.0560323 0.0108341 
0.054897 0.0685517 -0.191452 -0.0199148 -0.00243405 0.0114067 -0.065142 0.0937698 -0.0245491 
0.0173979 0.00302295 -0.00725739 -0.0505289 0.014942 -5.24659e-12 -0.0227053 -0.481896 -0.314766 
0.699348 -0.2594 -0.686171 -0.0442267 0.0434761 0.00731494 0.275336 0.0676377 -0.000156371 
-0.121003 -0.0778442 -0.0328479 0.0370392 0.0455687 0.000247586 0.00943573 0.00248215 -1.39659e-11 
0.0227952 -0.0462116 0.043113 -0.0437992 0.131899 0.0908815 0.0117389 0.0422433 -5.54104e-06 
0.000655361 -0.0267691 2.96254e-05 -0.00618035 0.175782 3.65853e-05 0.10691 0.00586692 0.000296255 
-0.0568112 0.0787916 3.77532e-05 -0.014585 -0.0439329 -0.000302428 0.0675453 -0.0315792 -5.82626e-05 
-0.000188295 0.0896333 -2.4812e-05 -0.0386056 -0.0259956 -0.000226082 -0.0863645 -0.000850688 9.59365e-06 
-0.0241933 -0.0247674 -0.0762513 -0.0106178 -0.0275804 0.000195934 -0.0118355 -0.0326424 0.00328343 
0.219915 -0.172721 -0.425978 -0.0762149 0.00214429 -0.0598045 -0.0200521 0.0972523 -0.000508011 
-0.0126071 -0.0128935 0.000993095 -0.00639252 0.00780914 0.0281505 0.271798 -0.209949 0.0265742 
-0.0309848 -0.00446383 -0.00952154 0.014581 -0.0268152 -0.0532195 0.0536413 0.534621 -0.346271 
0.221523 -0.281809 0.123133 -0.0249474 0.419264 -0.198947 0.0260227 0.0171123 -0.00736702 
0.0176343 -0.0149258 -0.0222975 -0.218695 -0.0261015 -0.0736204 -0.0191132 -0.00709362 0.00183521 
-0.021941 -0.0424639 0.0148777 -0.0253747 0.00025283 0.000131133 0.0326603 0.0315691 0.000122139 
-0.0187562 0.00259792 0.00880505 -0.000207443 0.000484729 -0.000186241 -0.00868844 0.0106644 -0.00786537 
-0.00640635 0.00913471 -7.54189e-05 7.13853e-06 0.000384688 3.05102e-05 -0.0445039 0.0064856 -1.9016e-05 
0.00014704 0.000718191 2.07114e-06 0.00384099 0.0231494 -0.00114169 0.00867828 0.0200316 2.69071e-05 
0.0163326 -0.0265586 -0.000450345 0.00724655 0.0193305 -0.000430902 -0.00218879 -0.00933068 -0.000177958 
-0.0053467 -0.0227933 -0.000117981 0.000307382 0.0284024 -1.37013e-06 -0.0218486 0.0058526 0.000170114 
-0.192522 0.0262267 -0.0880524 -0.00421851 -0.00974683 3.76982e-05 0.000840024 0.0615594 0.0266878 
0.166054 -0.418788 -0.217546 0.024083 0.0642147 -0.000203631 -0.00949187 -0.00862069 -0.0108579 
0.0666921 0.15988 6.86208e-12 0.0326573 0.0597381 0.00111361 0.000678741 -0.0517418 -0.0440175 
0.0201483 0.00120281 0.016727 0.128521 0.0972446 -0.0193846 -0.000492655 0.00610473 0.000227176 
0.0734187 0.0233209 -0.0401301 -0.0146921 -0.0197538 -2.80886e-05 0.0740658 -0.0327714 -0.409153 
-0.0314968 -0.0105779 -0.000825144 0.0686097 -0.097161 8.12619e-05 0.0145879 0.0989732 0.00119265 
-0.0206825 0.00123979 0.00101734 0.0222899 0.0132987 0.00145885 -0.0721642 0.00488291 -0.0022863 
0.00155694 -0.0411677 -0.00024377 -0.00345723 -0.0378582 4.84285e-12 0.0470624 0.119318 -8.54842e-05 
-0.0695598 0.0690023 -2.86454e-07 -0.0213331 -0.00323785 0.000273042 -0.0392833 -0.039988 0.100944 
-0.00554647 0.0881166 -0.000293595 -0.104648 -0.0356248 -0.00177844 0.00843633 -0.0244121 7.59221e-10 
-0.0500639 0.0202889 0.0468636 -0.0775506 -0.0438997 0.0466564 7.15595e-05 0.00815226 0.0122364 
-0.158719 -0.056106 -0.0620369 0.00437553 0.0217339 -0.000681925 -0.0397859 -0.0285557 0.0597605 
0.0143705 0.212848 0.0984923 -1.62544e-05 0.00458195 -0.00650818 -0.000181939 -5.31014e-05 -1.50931e-13 
-0.0156458 -0.0134027 -0.0110077 -0.153054 0.12755 0.0281348 -0.0415002 0.13609 -0.134247 
0.000729328 0.000140215 -0.00407108 -0.0067184 -0.0287902 -0.00226941 -0.0326571 0.0207114 0.000771062 
0.0167527 -0.0204451 -0.0070729 -0.0541793 0.070642 0.000953312 0.0098079 -0.00208933 -0.000211571 
-0.0392945 0.000769002 -0.00172728 0.0184122 -0.0274352 -3.72411e-10 -0.0167574 -0.0467164 -0.000873613 
-0.0194698 0.0519435 9.90924e-06 -0.0864968 0.0262366 -0.000338105 1.65182e-05 0.0220588 -2.0038e-05 
0.0174612 -0.0202266 -9.95296e-09 0.00782279 -0.00641129 0.000449328 0.00948321 -0.014848 -0.00147869 
-0.00860947 -0.0273012 0.00072172 0.000948061 -0.00463131 -4.85096e-12 -0.0754161 -0.0396337 0.00364297 
-0.000217824 0.0141133 -1.86757e-06 -0.047577 -0.0790041 -0.0301161 -0.0241821 -0.0297737 0.00818486 
3.2808e-05 0.00698456 -0.000745316 -0.0388154 0.028185 0.000661075 -0.192104 -0.496261 -0.377161 
0.304071 -0.127602 -0.486807 0.170372 0.0431517 -0.0184036 0.0909482 -0.0693857 -0.194946 
-0.0248224 -0.0200728 -0.0070793 -0.287037 0.0890952 -0.0307913 -0.0300396 0.0172755 0.00478394 
-0.0239085 0.0284635 0.000439127 -0.431405 -0.0517933 -0.231567 -0.00957183 0.0339909 0.000552654 
0.0185556 0.0217151 5.59603e-13 0.0370921 0.133743 -0.328826 -0.0306356 0.0076262 0.000776639 