# vtk DataFile Version 4.0
Generated by LIGGGHTS
ASCII
DATASET POLYDATA
POINTS 1163 float
0.00844804 0.00680527 0.0116574 0.00292458 0.00459217 0.0109654 0.0118511 0.00782931 0.0138032 
0.00957903 0.00279817 0.0140149 0.00350808 0.00832063 0.0161884 0.0131888 0.00166028 0.011381 
0.015665 0.00583687 0.0111582 0.0209105 0.00381724 0.011483 0.0174611 0.00345788 0.012255 
0.018421 0.00652441 0.0153297 0.0228657 0.00135327 0.0154117 0.0157426 0.000894498 0.0153254 
0.0129609 0.00609792 0.0155459 0.0206184 0.00175047 0.015914 0.0079622 0.011989 0.0112839 
0.00902079 0.0153628 0.0121397 0.00219654 0.0162748 0.0108772 0.00781213 0.00975367 0.0115969 
0.00461686 0.0110043 0.0146855 0.010345 0.0145593 0.0148729 0.00851381 0.0108599 0.0149486 
0.0231063 0.0107814 0.0108824 0.0146616 0.013623 0.0131865 0.0124729 0.0121029 0.0149608 
0.0197215 0.0115942 0.0160905 0.00709034 0.023174 0.0115068 0.00549452 0.0187542 0.0124879 
0.00332736 0.0196004 0.0130997 0.00914235 0.0231966 0.0130019 0.00308342 0.0221653 0.0137957 
0.00982094 0.021853 0.0147609 0.0115833 0.0171523 0.0147369 0.00594802 0.0193934 0.015356 
0.0148928 0.0230402 0.0110562 0.022581 0.0227675 0.0125759 0.0176988 0.0244545 0.0129373 
0.0202505 0.0201775 0.0137184 0.0159994 0.0167714 0.0137158 0.0128081 0.0200708 0.0157547 
0.019738 0.0206471 0.0161194 0.0104062 0.0268639 0.0117233 0.0114064 0.0308255 0.0105288 
0.0108648 0.0296215 0.0107875 0.00660921 0.0280517 0.0128346 0.0092696 0.0316573 0.0135135 
0.00220336 0.0321793 0.0138463 0.00382032 0.0253825 0.0154015 0.000900116 0.0257758 0.0154929 
0.0214659 0.0290058 0.0112839 0.0176603 0.0295638 0.0110688 0.0143331 0.0287116 0.0112188 
0.0129352 0.0310327 0.0115962 0.0221295 0.0306247 0.0143653 0.0182447 0.0309885 0.0146413 
0.0216686 0.0251729 0.0153368 0.0145974 0.0319076 0.0151004 0.0210805 0.0320189 0.0159952 
0.00428948 0.0334016 0.0135366 0.00673508 0.0392073 0.0109774 0.00343213 0.0370204 0.0109548 
0.00797306 0.0351687 0.0107754 0.0106404 0.0386051 0.0138612 0.00146146 0.0338178 0.0151128 
0.00986228 0.0358102 0.0161819 0.0178733 0.0377034 0.0110503 0.0201057 0.0414695 0.0113707 
0.0225284 0.0343253 0.0110971 0.014766 0.0363065 0.011874 0.0169941 0.040239 0.0114571 
0.0181681 0.0416546 0.0127912 0.0127405 0.0409986 0.0143582 0.0206957 0.0377348 0.0143456 
0.0206407 0.0344674 0.0163867 0.0065439 0.0476948 0.0109833 0.00389644 0.0484977 0.0118254 
0.00856018 0.0467983 0.0110034 0.0048798 0.0449246 0.0143024 0.00826886 0.0430227 0.0159313 
0.0108545 0.0445381 0.0163355 0.0160413 0.0442543 0.0111054 0.0139264 0.0431249 0.0107155 
0.0144577 0.0461063 0.0112929 0.0225443 0.0455754 0.0127107 0.0204627 0.0482284 0.0149381 
0.0154035 0.0445646 0.015665 0.0146408 0.0468204 0.0164596 0.00217018 0.0566907 0.0106413 
0.00418213 0.0535135 0.0109602 0.00845178 0.0534956 0.011076 0.00522034 0.0568425 0.0111674 
0.00935092 0.0542129 0.0151629 0.00121332 0.0507394 0.0162763 0.0215164 0.0582485 0.0109676 
0.0130256 0.0550133 0.0109254 0.0159258 0.0525458 0.0114391 0.0200668 0.0577116 0.0127506 
0.0184636 0.0542802 0.0154288 0.0224189 0.0560622 0.0149386 0.0142842 0.0583233 0.0150575 
0.0180685 0.0565215 0.0159949 0.00470345 0.0590695 0.0107903 0.0116891 0.0583731 0.011216 
0.00924167 0.0646967 0.0128478 0.00661499 0.0625545 0.0151708 0.0063213 0.0656586 0.0154249 
0.0035506 0.0637886 0.0155678 0.00999641 0.0623689 0.0158688 0.0217693 0.0636077 0.0113672 
0.022676 0.0600376 0.0111772 0.0125131 0.0622152 0.0118391 0.0196582 0.0599643 0.0123177 
0.0140253 0.0609346 0.0137783 0.0143938 0.0645765 0.0141769 0.0179495 0.0657639 0.014877 
0.0207555 0.0657407 0.0158455 0.0146122 0.0605922 0.0157486 0.00890187 0.0679317 0.0110873 
0.00254164 0.0667222 0.0115416 0.00461083 0.0693915 0.0127024 0.0076424 0.06812 0.0125811 
0.00463326 0.0675689 0.0150259 0.00938029 0.0704313 0.016087 0.0169642 0.0685253 0.0112043 
0.0158059 0.0706596 0.0113187 0.0138792 0.0698527 0.0115052 0.0123205 0.0686813 0.0123047 
0.0198245 0.0720953 0.013311 0.0154734 0.0675839 0.0142941 0.0189715 0.0695646 0.015982 
0.00744878 0.00744221 0.0168269 0.0113896 0.00435135 0.0168492 0.00278928 0.00318392 0.0195486 
0.0057805 0.00250871 0.0183897 0.00526708 0.00494093 0.0175512 0.000958321 0.00782428 0.0166392 
0.0103931 0.00165435 0.0173594 0.0103416 0.00830573 0.0200048 0.00495466 0.00754411 0.0198338 
0.0048853 0.00295047 0.0206015 0.000841423 0.00370222 0.0217853 0.00693432 0.00361614 0.0209485 
0.00183333 0.00457355 0.0226546 0.00233015 0.00272389 0.0231277 0.00482666 0.00504311 0.0238382 
0.00254762 0.00239622 0.0248525 0.0217211 0.00664946 0.0176783 0.0158177 0.000924417 0.0201765 
0.018264 0.00760126 0.0174562 0.0158421 0.00641332 0.0222517 0.0140214 0.00335173 0.0219089 
0.0132335 0.00789013 0.0218522 0.0173299 0.00268588 0.0221883 0.0207294 0.00819316 0.0194143 
0.0204892 0.00361708 0.024257 0.012784 0.00757936 0.0247736 0.0211404 0.00786831 0.0248518 
0.0194206 0.00554703 0.0215393 0.00886634 0.0127459 0.0185567 0.00494768 0.00978262 0.0185962 
0.00718964 0.0149691 0.0167608 0.00078796 0.0144181 0.0198295 0.0098591 0.0161851 0.0188113 
0.00702547 0.0143303 0.0190074 0.00981468 0.0105857 0.0218163 0.00757627 0.0163028 0.0188281 
0.00377909 0.0158317 0.0203632 0.00173798 0.0123917 0.0204511 0.00794544 0.00913169 0.0203291 
0.00459218 0.0141225 0.0190219 0.00594493 0.0147189 0.0212018 0.01077 0.011809 0.0224223 
0.00371081 0.0142947 0.0224842 0.00359742 0.0105905 0.0244257 0.0186252 0.0106592 0.017747 
0.0160277 0.0103139 0.0192916 0.0157103 0.0100204 0.0170772 0.0183498 0.0133245 0.0181077 
0.0229634 0.0157661 0.017538 0.0217763 0.0123134 0.0179009 0.0209451 0.010287 0.0189412 
0.0147918 0.0164773 0.0209436 0.022532 0.00954418 0.0205211 0.0168014 0.0141387 0.0207542 
0.014576 0.0134188 0.0207018 0.01833 0.00957629 0.0203864 0.0215528 0.0145518 0.0209523 
0.0188231 0.0122357 0.0217227 0.0152585 0.0151354 0.0230838 0.015684 0.0116168 0.0229644 
0.0184196 0.0161631 0.0223268 0.0221718 0.0153842 0.0238474 0.012654 0.0152185 0.0244898 
0.00181676 0.0198225 0.0169204 0.00220238 0.0231027 0.0207892 0.00605363 0.0208928 0.0210262 
0.00959355 0.0215053 0.0194555 0.0028263 0.0173276 0.0179652 0.00128124 0.017966 0.0198044 
0.00663197 0.0234065 0.0204505 0.0118347 0.0245217 0.0193105 0.00410589 0.0240813 0.0192115 
0.00752008 0.0188469 0.0196301 0.00938785 0.0172223 0.0215434 0.00691645 0.0170624 0.0217863 
0.00543095 0.0210338 0.0229758 0.0114998 0.0185638 0.0209305 0.00441292 0.0246822 0.0232879 
0.0215956 0.0170964 0.0176213 0.0162218 0.0194578 0.020438 0.0209217 0.0223702 0.0177879 
0.0150643 0.0207039 0.0166894 0.0216323 0.0199167 0.0197132 0.0149728 0.0219241 0.0193301 
0.0147748 0.0239537 0.0180896 0.0181586 0.0227732 0.0181142 0.0160837 0.0220941 0.0232012 
0.0187468 0.0247844 0.0197268 0.0182646 0.0200853 0.0213602 0.0230664 0.0189769 0.0217936 
0.0146152 0.0190372 0.0228089 0.0210889 0.0206468 0.0231482 0.0214834 0.0172583 0.0238101 
0.0191481 0.0170126 0.0248756 0.0133665 0.0234685 0.0247634 0.011539 0.0284155 0.0200046 
0.0102489 0.0303843 0.0212245 0.00130182 0.0308324 0.0173116 0.00818928 0.0259531 0.0200173 
0.0108743 0.0259748 0.020947 0.00504555 0.0265219 0.0180963 0.0116723 0.0317524 0.0216167 
0.00358626 0.0314233 0.0192973 0.00224671 0.0266051 0.0203082 0.00723048 0.0332767 0.022676 
0.00231526 0.0269901 0.0230311 0.00746574 0.0296938 0.0246546 0.00709328 0.0274852 0.0248629 
0.0195503 0.0250229 0.0173865 0.013455 0.0268656 0.0201611 0.0206308 0.0276079 0.0178423 
0.0162989 0.0306485 0.0177761 0.0146624 0.0266343 0.0187917 0.0144164 0.0290749 0.01667 
0.0221791 0.0255844 0.0197165 0.0218672 0.0303104 0.0194719 0.0199821 0.0323494 0.021811 
0.0208604 0.0282342 0.0224153 0.0148397 0.0267758 0.0212626 0.0222313 0.0324478 0.0230626 
0.0134016 0.0323856 0.0232629 0.0136677 0.0296488 0.0230213 0.0183911 0.0323285 0.0232027 
0.0221385 0.0307882 0.0246904 0.022063 0.0272111 0.0248153 0.0111355 0.0389805 0.0168174 
0.00596618 0.0348756 0.0178159 0.00597114 0.037471 0.0179248 0.0115475 0.0339859 0.0198215 
0.00500286 0.0346023 0.0216289 0.00833802 0.0416079 0.0179207 0.00211054 0.0357767 0.0184745 
0.00225052 0.0400601 0.0207129 0.0115115 0.0392604 0.0218274 0.00746714 0.0401712 0.0203599 
0.00314744 0.0375908 0.0216831 0.0046721 0.0398079 0.0215952 0.0107833 0.0333843 0.0234127 
0.010611 0.0400674 0.0238244 0.00420048 0.0343011 0.0240773 0.00898979 0.0357844 0.0212312 
0.0149588 0.0366776 0.0167136 0.0215007 0.0365843 0.016697 0.0183459 0.0372004 0.0176186 
0.0173664 0.0387622 0.0191818 0.0227683 0.0335397 0.0195326 0.0221121 0.0391149 0.0198386 
0.0226904 0.0411525 0.0219635 0.0220701 0.0364185 0.0241426 0.0232629 0.0388032 0.0223781 
0.0142953 0.0411446 0.0241242 0.0168862 0.0375518 0.0234536 0.0206539 0.0389756 0.0238078 
0.0134473 0.0361006 0.0233607 0.0186845 0.0404037 0.0242652 0.0121455 0.0367909 0.0210863 
0.0154023 0.0395214 0.0249064 0.00278367 0.042083 0.0224564 0.0033338 0.0474631 0.0194874 
0.00624403 0.0481769 0.0188525 0.00170007 0.0421217 0.0169117 0.00437483 0.0491548 0.0168506 
0.00570902 0.0424457 0.0201356 0.00206722 0.0490577 0.0200076 0.0113219 0.0488414 0.0205408 
0.0013874 0.0438532 0.0236663 0.00662673 0.0483329 0.0225119 0.00367793 0.0470131 0.0230735 
0.00856731 0.0462443 0.021121 0.0175027 0.0448343 0.0174697 0.0176244 0.0472399 0.0181239 
0.0210576 0.045112 0.0194413 0.0228838 0.0492141 0.017166 0.0171212 0.0498283 0.0173696 
0.0196407 0.0430459 0.0217918 0.0194454 0.0467618 0.0224577 0.0130939 0.0427248 0.0218355 
0.0160995 0.0423994 0.023437 0.0169326 0.0447145 0.0238857 0.0159791 0.0488456 0.0245269 
0.0149485 0.0460511 0.0243993 0.00478765 0.0512621 0.0192063 0.00669188 0.0557484 0.0179327 
0.00492173 0.0529304 0.0175995 0.00265563 0.0538131 0.0216408 0.00821754 0.0506709 0.0184207 
0.00126625 0.0556511 0.0192282 0.00946558 0.056389 0.0172489 0.0083061 0.0553554 0.0206402 
0.00910289 0.0509306 0.0222372 0.0113834 0.0510835 0.0195752 0.00114061 0.0568531 0.0230345 
[...]
POINT_DATA 1163
FIELD FieldData 7
id 1 1163 int
35 125 367 403 461 114 290 197 5 
412 568 599 332 140 15 68 83 235 
510 408 654 232 414 36 400 98 355 
394 110 310 794 227 4 91 307 280 
443 105 155 344 188 225 100 111 151 
170 479 261 74 58 22 34 301 285 
422 96 66 349 3 196 106 450 20 
226 7 55 99 293 265 46 276 338 
698 78 343 32 24 407 63 21 253 
139 189 491 604 795 109 128 163 279 
228 53 88 121 94 135 564 244 384 
487 40 284 233 318 311 574 608 86 
240 322 325 382 210 138 323 85 171 
224 136 51 29 287 69 260 148 358 
314 335 757 442 449 549 399 707 47 
45 373 65 304 512 271 434 446 1147 
272 509 572 56 675 894 553 660 934 
643 425 792 1154 305 336 781 827 281 
582 635 87 353 473 243 951 270 390 
41 1004 710 340 753 754 475 816 824 
846 177 569 910 205 180 19 681 397 
1069 75 327 500 583 740 429 790 802 
406 638 54 42 209 179 366 1092 1109 
354 689 749 761 456 828 112 190 884 
84 380 436 77 249 711 388 853 721 
556 371 823 254 93 629 103 991 1034 
468 876 767 370 682 691 31 777 780 
263 186 739 940 176 411 294 1066 44 
357 856 283 626 350 701 738 273 519 
838 919 245 48 330 766 537 472 1129 
296 127 95 181 899 946 80 1022 13 
897 1048 952 211 268 1131 538 267 494 
533 684 206 417 6 1029 737 1038 437 
1125 565 238 627 242 57 594 702 328 
499 161 958 391 389 559 668 672 822 
835 873 378 636 43 306 308 1093 778 
359 1149 122 493 560 679 706 430 841 
848 680 971 976 852 595 797 418 809 
38 1101 386 495 661 694 579 17 490 
508 79 387 401 773 1010 142 609 709 
216 501 269 820 82 915 375 352 683 
266 470 585 152 586 621 611 203 814 
195 979 156 632 462 218 363 424 1145 
728 28 571 525 184 457 839 64 207 
158 14 640 134 405 590 704 719 162 
404 857 933 936 980 423 1026 1032 505 
997 1050 607 1088 796 482 620 1156 521 
529 531 185 246 464 779 10 118 911 
59 606 840 208 192 485 26 173 507 
315 657 298 345 420 52 637 164 187 
73 992 1014 379 545 12 782 743 1070 
649 524 862 731 1112 220 1133 617 448 
517 720 230 89 60 277 798 237 146 
764 221 787 278 101 113 566 603 392 
663 37 395 27 137 341 994 129 837 
957 213 818 1155 601 478 723 900 447 
945 372 2 107 1062 676 25 1134 548 
674 319 591 605 229 612 726 829 833 
854 859 633 1015 540 489 744 175 398 
438 458 880 342 518 102 201 92 204 
199 771 214 33 23 965 1028 116 650 
1053 546 1102 250 145 793 554 686 320 
104 634 324 690 901 11 1 1042 421 
346 124 356 715 133 236 360 459 805 
1018 480 1035 291 1099 1103 845 630 664 
695 713 716 339 241 141 451 885 381 
914 927 115 198 30 598 117 165 577 
76 1141 202 329 49 143 544 580 615 
645 255 150 160 234 72 302 1052 1083 
1115 988 511 644 659 149 561 807 212 
943 861 347 969 1007 685 1108 881 1121 
1127 252 588 613 717 222 725 257 891 
474 496 259 410 167 746 427 514 584 
602 71 784 872 562 918 481 699 826 
247 536 396 275 119 303 157 1104 313 
168 166 174 759 834 869 892 97 662 
930 251 39 1027 1039 666 1087 231 334 
292 748 916 882 539 16 1045 8 1051 
1054 1065 687 1073 402 708 215 178 642 
874 153 541 67 903 904 312 954 467 
1001 523 769 131 1148 692 9 843 920 
924 497 1059 492 282 374 610 727 763 
670 722 974 321 1098 1100 1122 477 377 
62 61 557 256 928 219 1013 1126 1136 
653 484 123 913 949 274 977 750 454 
1057 875 1140 444 295 542 669 733 575 
929 169 867 299 1003 671 435 1151 573 
147 735 855 81 182 922 964 154 624 
1005 1016 502 1064 1068 515 1096 348 596 
578 758 786 108 619 217 432 950 956 
200 1033 732 488 1076 800 528 144 678 
696 419 760 191 870 193 955 993 1037 
889 1089 751 1120 361 783 132 262 286 
729 844 248 465 431 878 90 887 973 
333 469 369 362 1091 616 647 409 830 
532 223 309 851 316 1077 1107 1142 705 
810 868 126 476 364 326 963 995 998 
331 288 513 194 520 365 688 504 736 
120 804 812 752 907 921 527 239 172 
1002 1030 558 337 1118 1138 651 667 677 
813 819 896 289 926 258 791 982 460 
1025 1074 1110 506 452 547 317 426 618 
658 765 440 70 776 1023 693 1079 1124 
433 953 770 961 1012 1031 383 1041 587 
563 351 445 483 1146 183 614 655 656 
368 714 724 803 297 703 463 972 622 
453 300 1019 264 567 466 439 393 745 
416 775 18 836 428 898 486 641 130 
551 441 376 159 576 50 788 847 883 
917 1000 1017 1020 1021 785 1071 413 385 
628 806 825 879 886 975 1084 1123 526 
552 631 768 864 999 1040 1047 1063 1075 
1113 1117 1130 535 742 774 902 932 1056 
503 581 718 801 831 970 1094 1105 755 
756 762 789 925 938 978 987 1024 1152 
1153 534 648 652 712 893 959 996 1044 
1049 1061 1086 1137 498 592 623 665 842 
905 906 939 983 984 1036 455 849 866 
908 960 962 1043 1067 1144 530 673 734 
947 1055 1072 1078 1095 516 625 730 817 
865 888 966 968 772 808 931 944 986 
1011 1081 1116 415 555 700 871 981 989 
1009 646 815 821 832 850 912 937 1058 
1060 1157 471 543 570 597 799 860 942 
990 1090 1135 1143 522 741 877 923 935 
941 985 1008 1085 1114 1119 1128 1150 589 
600 639 858 948 967 1006 1080 1082 1097 
1132 1139 550 697 747 811 863 1106 1111 
593 890 895 909 1046 1158 1159 1160 1161 
1162 1163 
type 1 1163 int
1 1 1 1 1 1 1 1 1 
1 1 1 1 1 1 1 1 1 
1 1 1 1 1 1 1 1 1 
1 1 1 1 1 1 1 1 1 
1 1 1 1 1 1 1 1 1 
1 1 1 1 1 1 1 1 1 
1 1 1 1 1 1 1 1 1 
1 1 1 1 1 1 1 1 1 
1 1 1 1 1 1 1 1 1 
1 1 1 1 1 1 1 1 1 
1 1 1 1 1 1 1 1 1 
1 1 1 1 1 1 1 1 1 
1 1 1 1 1 1 1 1 1 
1 1 1 1 1 1 1 1 1 
1 1 1 1 1 1 1 1 1 
1 1 1 1 1 1 1 1 1 
1 1 1 1 1 1 1 1 1 
1 1 1 1 1 1 1 1 1 
1 1 1 1 1 1 1 1 1 
1 1 1 1 1 1 1 1 1 
1 1 1 1 1 1 1 1 1 
1 1 1 1 1 1 1 1 1 
1 1 1 1 1 1 1 1 1 
1 1 1 1 1 1 1 1 1 
1 1 1 1 1 1 1 1 1 
1 1 1 1 1 1 1 1 1 
1 1 1 1 1 1 1 1 1 
1 1 1 1 1 1 1 1 1 
1 1 1 1 1 1 1 1 1 
1 1 1 1 1 1 1 1 1 
1 1 1 1 1 1 1 1 1 
1 1 1 1 1 1 1 1 1 
1 1 1 1 1 1 1 1 1 
1 1 1 1 1 1 1 1 1 
1 1 1 1 1 1 1 1 1 
1 1 1 1 1 1 1 1 1 
1 1 1 1 1 1 1 1 1 
1 1 1 1 1 1 1 1 1 
1 1 1 1 1 1 1 1 1 
1 1 1 1 1 1 1 1 1 
1 1 1 1 1 1 1 1 1 
1 1 1 1 1 1 1 1 1 
1 1 1 1 1 1 1 1 1 
1 1 1 1 1 1 1 1 1 
1 1 1 1 1 1 1 1 1 
1 1 1 1 1 1 1 1 1 
1 1 1 1 1 1 1 1 1 
1 1 1 1 1 1 1 1 1 
1 1 1 1 1 1 1 1 1 
1 1 1 1 1 1 1 1 1 
1 1 1 1 1 1 1 1 1 
1 1 1 1 1 1 1 1 1 
1 1 1 1 1 1 1 1 1 
1 1 1 1 1 1 1 1 1 
1 1 1 1 1 1 1 1 1 
1 1 1 1 1 1 1 1 1 
1 1 1 1 1 1 1 1 1 
1 1 1 1 1 1 1 1 1 
1 1 1 1 1 1 1 1 1 
1 1 1 1 1 1 1 1 1 
1 1 1 1 1 1 1 1 1 
1 1 1 1 1 1 1 1 1 
1 1 1 1 1 1 1 1 1 
1 1 1 1 1 1 1 1 1 
1 1 1 1 1 1 1 1 1 
1 1 1 1 1 1 1 1 1 
1 1 1 1 1 1 1 1 1 
1 1 1 1 1 1 1 1 1 
1 1 1 1 1 1 1 1 1 
1 1 1 1 1 1 1 1 1 
1 1 1 1 1 1 1 1 1 
1 1 1 1 1 1 1 1 1 
1 1 1 1 1 1 1 1 1 
1 1 1 1 1 1 1 1 1 
1 1 1 1 1 1 1 1 1 
1 1 1 1 1 1 1 1 1 
1 1 1 1 1 1 1 1 1 
1 1 1 1 1 1 1 1 1 
1 1 1 1 1 1 1 1 1 
1 1 1 1 1 1 1 1 1 
1 1 1 1 1 1 1 1 1 
1 1 1 1 1 1 1 1 1 
1 1 1 1 1 1 1 1 1 
1 1 1 1 1 1 1 1 1 
1 1 1 1 1 1 1 1 1 
1 1 1 1 1 1 1 1 1 
1 1 1 1 1 1 1 1 1 
1 1 1 1 1 1 1 1 1 
1 1 1 1 1 1 1 1 1 
1 1 1 1 1 1 1 1 1 
1 1 1 1 1 1 1 1 1 
1 1 1 1 1 1 1 1 1 
1 1 1 1 1 1 1 1 1 
1 1 1 1 1 1 1 1 1 
1 1 1 1 1 1 1 1 1 
1 1 1 1 1 1 1 1 1 
1 1 1 1 1 1 1 1 1 
1 1 1 1 1 1 1 1 1 
1 1 1 1 1 1 1 1 1 
1 1 1 1 1 1 1 1 1 
1 1 1 1 1 1 1 1 1 
1 1 1 1 1 1 1 1 1 
1 1 1 1 1 1 1 1 1 
1 1 1 1 1 1 1 1 1 
1 1 1 1 1 1 1 1 1 
1 1 1 1 1 1 1 1 1 
1 1 1 1 1 1 1 1 1 
1 1 1 1 1 1 1 1 1 
1 1 1 1 1 1 1 1 1 
1 1 1 1 1 1 1 1 1 
1 1 1 1 1 1 1 1 1 
1 1 1 1 1 1 1 1 1 
1 1 1 1 1 1 1 1 1 
1 1 1 1 1 1 1 1 1 
1 1 1 1 1 1 1 1 1 
1 1 1 1 1 1 1 1 1 
1 1 1 1 1 1 1 1 1 
1 1 1 1 1 1 1 1 1 
1 1 1 1 1 1 1 1 1 
1 1 1 1 1 1 1 1 1 
1 1 1 1 1 1 1 1 1 
1 1 1 1 1 1 1 1 1 
1 1 1 1 1 1 1 1 1 
1 1 1 1 1 1 1 1 1 
1 1 1 1 1 1 1 1 1 
1 1 1 1 1 1 1 1 1 
1 1 1 1 1 1 1 1 1 
1 1 1 1 1 1 1 1 1 
1 1 1 1 1 1 1 1 1 
1 1 
i 3 1163 int
0 0 0 0 0 0 0 0 0 
0 0 0 0 0 0 0 0 0 
0 0 0 0 0 0 0 0 0 
0 0 0 0 0 0 0 0 0 
0 0 0 0 0 0 0 0 0 
0 0 0 0 0 0 0 0 0 
0 0 0 0 0 0 0 0 0 
0 0 0 0 0 0 0 0 0 
0 0 0 0 0 0 0 0 0 
0 0 0 0 0 0 0 0 0 
0 0 0 0 0 0 0 0 0 
0 0 0 0 0 0 0 0 0 
0 0 0 0 0 0 0 0 0 
0 0 0 0 0 0 0 0 0 
0 0 0 0 0 0 0 0 0 
0 0 0 0 0 0 0 0 0 
0 0 0 0 0 0 0 0 0 
0 0 0 0 0 0 0 0 0 
0 0 0 0 0 0 0 0 0 
0 0 0 0 0 0 0 0 0 
0 0 0 0 0 0 0 0 0 
0 0 0 0 0 0 0 0 0 
0 0 0 0 0 0 0 0 0 
0 0 0 0 0 0 0 0 0 
0 0 0 0 0 0 0 0 0 
0 0 0 0 0 0 0 0 0 
0 0 0 0 0 0 0 0 0 
0 0 0 0 0 0 0 0 0 
0 0 0 0 0 0 0 0 0 
0 0 0 0 0 0 0 0 0 
0 0 0 0 0 0 0 0 0 
0 0 0 0 0 0 0 0 0 
0 0 0 0 0 0 0 0 0 
0 0 0 0 0 0 0 0 0 
0 0 0 0 0 0 0 0 0 
0 0 0 0 0 0 0 0 0 
0 0 0 0 0 0 0 0 0 
0 0 0 0 0 0 0 0 0 
0 0 0 0 0 0 0 0 0 
0 0 0 0 0 0 0 0 0 
0 0 0 0 0 0 0 0 0 
0 0 0 0 0 0 0 0 0 
0 0 0 0 0 0 0 0 0 
0 0 0 0 0 0 0 0 0 
0 0 0 0 0 0 0 0 0 
0 0 0 0 0 0 0 0 0 
0 0 0 0 0 0 0 0 0 
0 0 0 0 0 0 0 0 0 
0 0 0 0 0 0 0 0 0 
0 0 0 0 0 0 0 0 0 
0 0 0 0 0 0 0 0 0 
0 0 0 0 0 0 0 0 0 
0 0 0 0 0 0 0 0 0 
0 0 0 0 0 0 0 0 0 
0 0 0 0 0 0 0 0 0 
0 0 0 0 0 0 0 0 0 
0 0 0 0 0 0 0 0 0 
0 0 0 0 0 0 0 0 0 
0 0 0 0 0 0 0 0 0 
0 0 0 0 0 0 0 0 0 
0 0 0 0 0 0 0 0 0 
0 0 0 0 0 0 0 0 0 
0 0 0 0 0 0 0 0 0 
0 0 0 0 0 0 0 0 0 
0 0 0 0 0 0 0 0 0 
0 0 0 0 0 0 0 0 0 
0 0 0 0 0 0 0 0 0 
0 0 0 0 0 0 0 0 0 
0 0 0 0 0 0 0 0 0 
0 0 0 0 0 0 0 0 0 
0 0 0 0 0 0 0 0 0 
0 0 0 0 0 0 0 0 0 
0 0 0 0 0 0 0 0 0 
0 0 0 0 0 0 0 0 0 
0 0 0 0 0 0 0 0 0 
0 0 0 0 0 0 0 0 0 
0 0 0 0 0 0 0 0 0 
0 0 0 0 0 0 0 0 0 
0 0 0 0 0 0 0 0 0 
0 0 0 0 0 0 0 0 0 
0 0 0 0 0 0 0 0 0 
0 0 0 0 0 0 0 0 0 
0 0 0 0 0 0 0 0 0 
0 0 0 0 0 0 0 0 0 
0 0 0 0 0 0 0 0 0 
0 0 0 0 0 0 0 0 0 
0 0 0 0 0 0 0 0 0 
0 0 0 0 0 0 0 0 0 
0 0 0 0 0 0 0 0 0 
0 0 0 0 0 0 0 0 0 
0 0 0 0 0 0 0 0 0 
0 0 0 0 0 0 0 0 0 
0 0 0 0 0 0 0 0 0 
0 0 0 0 0 0 0 0 0 
0 0 0 0 0 0 0 0 0 
0 0 0 0 0 0 0 0 0 
0 0 0 0 0 0 0 0 0 
0 0 0 0 0 0 0 0 0 
0 0 0 0 0 0 0 0 0 
0 0 0 0 0 0 0 0 0 
0 0 0 0 0 0 0 0 0 
0 0 0 0 0 0 0 0 0 
0 0 0 0 0 0 0 0 0 
0 0 0 0 0 0 0 0 0 
0 0 0 0 0 0 0 0 0 
0 0 0 0 0 0 0 0 0 
0 0 0 0 0 0 0 0 0 
0 0 0 0 0 0 0 0 0 
0 0 0 0 0 0 0 0 0 
0 0 0 0 0 0 0 0 0 
0 0 0 0 0 0 0 0 0 
0 0 0 0 0 0 0 0 0 
0 0 0 0 0 0 0 0 0 
0 0 0 0 0 0 0 0 0 
0 0 0 0 0 0 0 0 0 
0 0 0 0 0 0 0 0 0 
0 0 0 0 0 0 0 0 0 
0 0 0 0 0 0 0 0 0 
0 0 0 0 0 0 0 0 0 
0 0 0 0 0 0 0 0 0 
0 0 0 0 0 0 0 0 0 
0 0 0 0 0 0 0 0 0 
0 0 0 0 0 0 0 0 0 
0 0 0 0 0 0 0 0 0 
0 0 0 0 0 0 0 0 0 
0 0 0 0 0 0 0 0 0 
0 0 0 0 0 0 0 0 0 
0 0 0 0 0 0 0 0 0 
0 0 0 0 0 0 0 0 0 
0 0 0 0 0 0 0 0 0 
0 0 0 0 0 0 0 0 0 
0 0 0 0 0 0 0 0 0 
0 0 0 0 0 0 0 0 0 
0 0 0 0 0 0 0 0 0 
0 0 0 0 0 0 0 0 0 
0 0 0 0 0 0 0 0 0 
0 0 0 0 0 0 0 0 0 
0 0 0 0 0 0 0 0 0 
0 0 0 0 0 0 0 0 0 
0 0 0 0 0 0 0 0 0 
0 0 0 0 0 0 0 0 0 
0 0 0 0 0 0 0 0 0 
0 0 0 0 0 0 0 0 0 
0 0 0 0 0 0 0 0 0 
0 0 0 0 0 0 0 0 0 
0 0 0 0 0 0 0 0 0 
0 0 0 0 0 0 0 0 0 
0 0 0 0 0 0 0 0 0 
0 0 0 0 0 0 0 0 0 
0 0 0 0 0 0 0 0 0 
0 0 0 0 0 0 0 0 0 
0 0 0 0 0 0 0 0 0 
0 0 0 0 0 0 0 0 0 
0 0 0 0 0 0 0 0 0 
0 0 0 0 0 0 0 0 0 
0 0 0 0 0 0 0 0 0 
0 0 0 0 0 0 0 0 0 
0 0 0 0 0 0 0 0 0 
0 0 0 0 0 0 0 0 0 
0 0 0 0 0 0 0 0 0 
0 0 0 0 0 0 0 0 0 
0 0 0 0 0 0 0 0 0 
0 0 0 0 0 0 0 0 0 
0 0 0 0 0 0 0 0 0 
0 0 0 0 0 0 0 0 0 
0 0 0 0 0 0 0 0 0 
0 0 0 0 0 0 0 0 0 
0 0 0 0 0 0 0 0 0 
0 0 0 0 0 0 0 0 0 
0 0 0 0 0 0 0 0 0 
0 0 0 0 0 0 0 0 0 
0 0 0 0 0 0 0 0 0 
0 0 0 0 0 0 0 0 0 
0 0 0 0 0 0 0 0 0 
0 0 0 0 0 0 0 0 0 
0 0 0 0 0 0 0 0 0 
0 0 0 0 0 0 0 0 0 
0 0 0 0 0 0 0 0 0 
0 0 0 0 0 0 0 0 0 
0 0 0 0 0 0 0 0 0 
0 0 0 0 0 0 0 0 0 
0 0 0 0 0 0 0 0 0 
0 0 0 0 0 0 0 0 0 
0 0 0 0 0 0 0 0 0 
0 0 0 0 0 0 0 0 0 
0 0 0 0 0 0 0 0 0 
0 0 0 0 0 0 0 0 0 
0 0 0 0 0 0 0 0 0 
0 0 0 0 0 0 0 0 0 
0 0 0 0 0 0 0 0 0 
0 0 0 0 0 0 0 0 0 
0 0 0 0 0 0 0 0 0 
0 0 0 0 0 0 0 0 0 
0 0 0 0 0 0 0 0 0 
0 0 0 0 0 0 0 0 0 
0 0 0 0 0 0 0 0 0 
0 0 0 0 0 0 0 0 0 
0 0 0 0 0 0 0 0 0 
0 0 0 0 0 0 0 0 0 
0 0 0 0 0 0 0 0 0 
0 0 0 0 0 0 0 0 0 
0 0 0 0 0 0 0 0 0 
0 0 0 0 0 0 0 0 0 
0 0 0 0 0 0 0 0 0 
0 0 0 0 0 0 0 0 0 
0 0 0 0 0 0 0 0 0 
0 0 0 0 0 0 0 0 0 
0 0 0 0 0 0 0 0 0 
0 0 0 0 0 0 0 0 0 
0 0 0 0 0 0 0 0 0 
0 0 0 0 0 0 0 0 0 
0 0 0 0 0 0 0 0 0 
0 0 0 0 0 0 0 0 0 
0 0 0 0 0 0 0 0 0 
0 0 0 0 0 0 0 0 0 
0 0 0 0 0 0 0 0 0 
0 0 0 0 0 0 0 0 0 
0 0 0 0 0 0 0 0 0 
0 0 0 0 0 0 0 0 0 
0 0 0 0 0 0 0 0 0 
0 0 0 0 0 0 0 0 0 
0 0 0 0 0 0 0 0 0 
0 0 0 0 0 0 0 0 0 
0 0 0 0 0 0 0 0 0 
0 0 0 0 0 0 0 0 0 
0 0 0 0 0 0 0 0 0 
0 0 0 0 0 0 0 0 0 
0 0 0 0 0 0 0 0 0 
0 0 0 0 0 0 0 0 0 
0 0 0 0 0 0 0 0 0 
0 0 0 0 0 0 0 0 0 
0 0 0 0 0 0 0 0 0 
0 0 0 0 0 0 0 0 0 
0 0 0 0 0 0 0 0 0 
0 0 0 0 0 0 0 0 0 
0 0 0 0 0 0 0 0 0 
0 0 0 0 0 0 0 0 0 
0 0 0 0 0 0 0 0 0 
0 0 0 0 0 0 0 0 0 
0 0 0 0 0 0 0 0 0 
0 0 0 0 0 0 0 0 0 
0 0 0 0 0 0 0 0 0 
0 0 0 0 0 0 0 0 0 
0 0 0 0 0 0 0 0 0 
0 0 0 0 0 0 0 0 0 
0 0 0 0 0 0 0 0 0 
0 0 0 0 0 0 0 0 0 
0 0 0 0 0 0 0 0 0 
0 0 0 0 0 0 0 0 0 
0 0 0 0 0 0 0 0 0 
0 0 0 0 0 0 0 0 0 
0 0 0 0 0 0 0 0 0 
0 0 0 0 0 0 0 0 0 
0 0 0 0 0 0 0 0 0 
0 0 0 0 0 0 0 0 0 
0 0 0 0 0 0 0 0 0 
0 0 0 0 0 0 0 0 0 
0 0 0 0 0 0 0 0 0 
0 0 0 0 0 0 0 0 0 
0 0 0 0 0 0 0 0 0 
0 0 0 0 0 0 0 0 0 
0 0 0 0 0 0 0 0 0 
0 0 0 0 0 0 0 0 0 
0 0 0 0 0 0 0 0 0 
0 0 0 0 0 0 0 0 0 
0 0 0 0 0 0 0 0 0 
0 0 0 0 0 0 0 0 0 
0 0 0 0 0 0 0 0 0 
0 0 0 0 0 0 0 0 0 
0 0 0 0 0 0 0 0 0 
0 0 0 0 0 0 0 0 0 
0 0 0 0 0 0 0 0 0 
0 0 0 0 0 0 0 0 0 
0 0 0 0 0 0 0 0 0 
0 0 0 0 0 0 0 0 0 
0 0 0 0 0 0 0 0 0 
0 0 0 0 0 0 0 0 0 
0 0 0 0 0 0 0 0 0 
0 0 0 0 0 0 0 0 0 
0 0 0 0 0 0 0 0 0 
0 0 0 0 0 0 0 0 0 
0 0 0 0 0 0 0 0 0 
0 0 0 0 0 0 0 0 0 
0 0 0 0 0 0 0 0 0 
0 0 0 0 0 0 0 0 0 
0 0 0 0 0 0 0 0 0 
0 0 0 0 0 0 0 0 0 
0 0 0 0 0 0 0 0 0 
0 0 0 0 0 0 0 0 0 
0 0 0 0 0 0 0 0 0 
0 0 0 0 0 0 0 0 0 
0 0 0 0 0 0 0 0 0 
0 0 0 0 0 0 0 0 0 
0 0 0 0 0 0 0 0 0 
0 0 0 0 0 0 0 0 0 
0 0 0 0 0 0 0 0 0 
0 0 0 0 0 0 0 0 0 
0 0 0 0 0 0 0 0 0 
0 0 0 0 0 0 0 0 0 
0 0 0 0 0 0 0 0 0 
0 0 0 0 0 0 0 0 0 
0 0 0 0 0 0 0 0 0 
0 0 0 0 0 0 0 0 0 
0 0 0 0 0 0 0 0 0 
0 0 0 0 0 0 0 0 0 
0 0 0 0 0 0 0 0 0 
0 0 0 0 0 0 0 0 0 
0 0 0 0 0 0 0 0 0 
0 0 0 0 0 0 0 0 0 
0 0 0 0 0 0 0 0 0 
0 0 0 0 0 0 0 0 0 
0 0 0 0 0 0 0 0 0 
0 0 0 0 0 0 0 0 0 
0 0 0 0 0 0 0 0 0 
0 0 0 0 0 0 0 0 0 
0 0 0 0 0 0 0 0 0 
0 0 0 0 0 0 0 0 0 
0 0 0 0 0 0 0 0 0 
0 0 0 0 0 0 0 0 0 
0 0 0 0 0 0 0 0 0 
0 0 0 0 0 0 0 0 0 
0 0 0 0 0 0 0 0 0 
0 0 0 0 0 0 0 0 0 
0 0 0 0 0 0 0 0 0 
0 0 0 0 0 0 0 0 0 
0 0 0 0 0 0 0 0 0 
0 0 0 0 0 0 0 0 0 
0 0 0 0 0 0 0 0 0 
0 0 0 0 0 0 0 0 0 
0 0 0 0 0 0 0 0 0 
0 0 0 0 0 0 0 0 0 
0 0 0 0 0 0 0 0 0 
0 0 0 0 0 0 0 0 0 
0 0 0 0 0 0 0 0 0 
0 0 0 0 0 0 0 0 0 
0 0 0 0 0 0 0 0 0 
0 0 0 0 0 0 0 0 0 
0 0 0 0 0 0 0 0 0 
0 0 0 0 0 0 0 0 0 
0 0 0 0 0 0 0 0 0 
0 0 0 0 0 0 0 0 0 
0 0 0 0 0 0 0 0 0 
0 0 0 0 0 0 0 0 0 
0 0 0 0 0 0 0 0 0 
0 0 0 0 0 0 0 0 0 
0 0 0 0 0 0 0 0 0 
0 0 0 0 0 0 0 0 0 
0 0 0 0 0 0 0 0 0 
0 0 0 0 0 0 0 0 0 
0 0 0 0 0 0 0 0 0 
0 0 0 0 0 0 0 0 0 
0 0 0 0 0 0 0 0 0 
0 0 0 0 0 0 0 0 0 
0 0 0 0 0 0 0 0 0 
0 0 0 0 0 0 0 0 0 
0 0 0 0 0 0 0 0 0 
0 0 0 0 0 0 0 0 0 
0 0 0 0 0 0 0 0 0 
0 0 0 0 0 0 0 0 0 
0 0 0 0 0 0 0 0 0 
0 0 0 0 0 0 0 0 0 
0 0 0 0 0 0 0 0 0 
0 0 0 0 0 0 0 0 0 
0 0 0 0 0 0 0 0 0 
0 0 0 0 0 0 0 0 0 
0 0 0 0 0 0 0 0 0 
0 0 0 0 0 0 0 0 0 
0 0 0 0 0 0 0 0 0 
0 0 0 0 0 0 0 0 0 
0 0 0 0 0 0 0 0 0 
0 0 0 0 0 0 0 0 0 
0 0 0 0 0 0 0 0 0 
0 0 0 0 0 0 0 0 0 
0 0 0 0 0 0 0 0 0 
0 0 0 0 0 0 0 0 0 
0 0 0 0 0 0 0 0 0 
0 0 0 0 0 0 0 0 0 
0 0 0 0 0 0 0 0 0 
0 0 0 0 0 0 0 0 0 
0 0 0 0 0 0 0 0 0 
0 0 0 0 0 0 0 0 0 
0 0 0 0 0 0 0 0 0 
0 0 0 0 0 0 0 0 0 
0 0 0 0 0 0 0 0 0 
0 0 0 0 0 0 0 0 0 
0 0 0 0 0 0 0 0 0 
0 0 0 0 0 0 0 0 0 
0 0 0 0 0 0 
v 3 1163 double
0 0 -4.85539e-12 0 0 0.184965 -0.00273215 0.00426215 -3.93112 
-0.0618403 0.0868941 -4.10758 -0.0777136 -0.0485272 -3.62597 0 0 -0.0744843 
0 0 0.332873 0.102362 0.0185489 0.421541 -0.122629 0.0866975 -5.11663 
0 0 -3.70276 -0.0291418 -0.0502452 -3.28253 -0.426167 0.0812885 -3.39008 
0.039888 -0.0622251 -3.99172 -0.632513 0.109242 -4.23585 0.0205699 0.306385 -2.68723e-08 
-0.0789631 0.0559118 0.0125447 0 0 0.0659045 -0.110669 -1.6484 -3.17044 
0 0 -3.23114 0.968159 -0.471851 -0.398774 -1.0649 -0.398517 -3.98686 
0 0 0.418734 0.423824 0.243313 -4.43211 0.0325719 -0.13726 -4.75115 
0.125559 0.144424 -4.00621 0 0 0.380155 0.111611 -0.0279499 -4.1711 
-0.466317 0.257706 -4.63944 0 0 -5.08793 0 0 -4.17585 
-0.776062 0.503595 -3.94018 -0.012008 -0.0419599 -4.55148 -0.152559 0.798005 -4.23787 
0 0 -5.136 0 0 -4.19694 0 0 -4.31417 
0.0257186 -0.0235697 -3.76196 0.121526 -0.511079 -4.6729 0.18535 -0.0473065 -4.41827 
-0.0377217 0.0345699 -3.73415 0 0 -0.176781 0.0450854 0.100219 0.444919 
-0.0240865 -0.0535413 -5.06731 0 0 -5.08671 0 0 -4.88903 
-0.086568 -0.0507235 -4.7455 0 0 -3.36358 0 0 -4.40001 
0 0 -1.27837e-05 0 0 -0.234249 0 0 -0.198993 
0 0 -5.39008 0.0453228 -0.0283241 -4.30769 -0.0101659 -0.1634 -4.46942 
0 0 -3.64709 0 0 -5.12006 0.108364 0.228124 -4.32209 
0.186311 0.109167 -4.15877 0 0 -0.157593 0 0 0.166685 
0 0 0.14782 -0.0114826 -0.0125648 -3.55323 0 0 -5.42196 
-0.0545931 0.0590972 -4.51823 0 0 -0.314187 0.962797 -0.088201 -1.08703 
0 0 -0.03067 0 0 -1.6011 -0.163524 -0.196686 -4.77716 
-1.3007 0.263406 -3.7094 0.217437 0.247939 -4.0562 0.0168946 0.174257 -4.10801 
0.265631 0.102784 -3.03992 0 0 0.044105 0 0 -4.03777 
0 0 0.505614 0.499294 0.384213 -5.02748 -0.321183 0.0113043 -4.30024 
-0.184945 0.0368946 -4.79537 0 0 -0.0782213 0 0 0.318506 
0 0 0.462217 0 0 -4.71687 -0.0333369 -0.0135725 -3.34523 
0.541028 -0.0358604 -4.20469 -0.641175 -0.777521 -4.06137 0 0 -0.301554 
0 0 -0.138192 0 0 -0.119171 0 0 -4.31441 
-0.246035 -0.259592 -4.33497 0 0 -5.31234 0 0 0.213523 
0 0 0.361995 0 0 -5.12129 0.0273997 -0.151065 -4.73086 
0.00298409 -0.0169273 -3.01123 0 0 -4.46034 -0.039724 -0.0484978 -5.04552 
-0.0138062 0.0783161 -3.27951 0 0 -0.027576 0 0 -4.29945 
0 0 -4.50669 -0.0796145 -0.117422 -4.49053 0.04279 0.108891 -4.29277 
-0.687065 -0.0229754 -3.89261 0.686954 -0.104307 -3.6193 0 0 -0.177779 
0 0 0.294699 0 0 -4.14544 -0.0401972 0.221623 -4.4782 
0 0 -3.85138 0 0 -4.60553 0 0 -4.95329 
0.00615759 0.014853 -4.23299 0 0 -5.16666 0 0 0.0578037 
0 0 0.024928 0 0 -4.96163 0 0 -5.31945 
0.27769 0.0407646 -5.30634 0 0 -4.29161 0 0 -0.229249 
0.215116 0.0900884 0.113401 -1.53991 -0.644895 -3.79338 0 0 -3.96984 
0 0 -4.16138 0 0 -4.07063 0.503401 -0.560069 -3.29969 
0.063652 -0.0356487 -3.6272 0 0 -3.53697 -0.0678135 0.00755289 -3.18358 
0 0 -3.74887 -0.247426 -0.309737 -2.59778 0 0 -5.32239 
0.195064 -0.274091 -4.12348 0 0 -3.89921 -0.0409797 -0.302151 -4.24991 
0.460289 -0.0512657 -3.69153 -0.0689056 -0.0605287 -3.32817 0 0 -4.34262 
0.0689056 0.0605287 -3.49636 -0.0516352 0.0777997 -4.12368 0 0 -0.109112 
0.0240132 -0.0361811 -4.07682 0 0 -3.23629 0 0 -2.96922 
0 0 -5.29419 0 0 -2.51845 0 0 -1.47221 
0.0502472 0.0347416 -3.60397 -0.0347383 -0.0114695 -3.53237 -0.0746196 -0.279581 -1.46404 
0.232338 -0.234483 -3.08519 -0.00740068 -0.00511694 -3.55747 0.468017 0.366253 -2.71463 
0 0 -0.0684002 0.35418 -0.520753 -3.43878 -0.0559244 0.259228 -3.73478 
-0.0935309 -0.107196 -3.21224 0.0447929 0.667261 -2.58643 0.121254 0.0161244 -4.41643 
-0.0464849 -0.423008 -3.1781 0 0 -2.71808 0.0578966 0.646122 -3.37589 
-0.435558 0.783487 -2.74539 -0.0819311 -0.23259 -3.85678 0 0 -4.47456 
-0.408288 -0.575879 -3.30715 0.322679 0.0800495 -3.5922 0 0 -3.79743 
0.119874 0.204185 -3.9766 -0.136111 0.210317 -1.91102 -0.0410424 0.00821622 -4.09332 
-0.29242 0.0815948 -3.53617 -0.0984172 -0.0512496 -3.39878 -0.799317 -0.188055 -4.24145 
-0.0399791 0.30846 -4.42358 0.149216 -0.252156 -3.79156 -0.342521 -0.0324384 -3.21365 
-0.0417918 0.279623 -2.32566 0.193926 -0.0904886 -3.83044 -0.739863 0.0271059 -3.65972 
-0.321438 0.52275 -3.03128 0.0316257 -0.355688 -4.07706 0.150599 0.301857 -3.8067 
-0.227448 -0.0201109 -4.48188 0.696134 -0.307916 -2.71687 0.10188 -0.165685 -3.22738 
-0.214893 -0.250608 -1.76538 0.173217 -0.522053 -4.93069 -0.121131 -0.270903 -4.25073 
0 0 -3.2694 0 0 -2.90864 0.164891 -0.0373413 -3.12408 
0 0 -3.61496 0 0 -2.05713 0 0 -1.99925 
0 0 -3.72042 -0.108428 -0.142562 -3.47422 0 0 -5.31037 
0 0 -5.33073 0 0 -4.60602 0.071362 0.174288 -4.57378 
-0.164891 0.0373413 -3.0493 0 0 -0.333761 0 0 -0.26926 
0 0 -3.98308 0.108811 0.0264018 -3.18323 0 0 -2.22758 
-0.178288 0.749788 -2.79143 0.0127224 -0.040235 -4.02917 0 0 -1.87785 
0.388533 -0.459686 -4.54535 0 0 -4.70117 0 0 -1.53671 
-0.325518 -0.145949 -4.46333 0.382847 0.116016 -3.50851 -0.0568566 -0.299696 -3.78247 
-0.521515 -0.137293 -3.11992 -0.0744152 0.128507 -4.01601 -0.175408 0.0692231 -3.27032 
0.0681102 0.07943 -3.40198 0.0928495 0.486253 -3.55464 0.0230887 -0.0369038 -2.39628 
-0.4329 -0.0530455 -2.86165 -0.339372 -0.0877807 -4.78534 -0.359903 0.0361096 -2.48657 
0.272135 0.178165 -2.91184 0 0 -5.12595 -0.255234 -0.00195061 -3.31959 
0.0733044 0.0189606 -4.91345 0 0 -0.9513 0 0 -0.691335 