# vtk DataFile Version 4.0
Generated by LIGGGHTS
ASCII
DATASET POLYDATA
POINTS 538 float
0.0101202 0.00466577 0.0116574 0.0040343 0.00438513 0.0108755 0.00635579 0.00213936 0.0121394 
0.00304085 0.006587 0.0116573 0.000677951 0.00744532 0.0106779 0.00681254 0.00650029 0.0121393 
0.00216773 0.0034477 0.0106779 0.00418334 0.000770427 0.0107704 0.000770461 0.00600285 0.0107704 
0.00217785 0.00145876 0.0114587 0.00557487 0.00442018 0.010678 0.00386114 0.00275084 0.0107705 
0.00791311 0.00418054 0.0107702 0.000770451 0.00304472 0.0107704 0.000770465 0.000770479 0.0130447 
0.00120266 0.0045238 0.0107704 0.00246891 0.00099448 0.01385 0.000875399 0.00314625 0.0124099 
0.00260746 0.00464474 0.0105965 0.00249988 0.0040488 0.0122027 0.00436415 0.00455235 0.0130884 
0.00871639 0.00481585 0.0137605 0.000994445 0.00642552 0.0133363 0.00344875 0.00261849 0.0132076 
0.00984271 0.00156798 0.0114587 0.000770488 0.0052002 0.0120858 0.0101976 0.00768898 0.0124677 
0.00309386 0.00576775 0.0140536 0.00877681 0.000875477 0.0134166 0.0114181 0.00099449 0.0132498 
0.000770771 0.00443777 0.013425 0.00950487 0.0069951 0.0108754 0.0113517 0.00689425 0.0137059 
0.0120116 0.0058329 0.0126348 0.0120575 0.00592753 0.0107705 0.0125652 0.00128392 0.0112839 
0.0151472 0.00617763 0.01113 0.0224551 0.00367388 0.0114587 0.0164919 0.00398978 0.0114587 
0.0191475 0.00465317 0.0112839 0.0228699 0.00113008 0.01113 0.0144871 0.000770466 0.0107704 
0.0160247 0.00192156 0.0107704 0.0208721 0.000875496 0.0108754 0.0216247 0.00548132 0.0106779 
0.0167615 0.000677941 0.010678 0.0186125 0.00171168 0.0116574 0.0228507 0.00785751 0.01113 
0.0160505 0.00778924 0.0126838 0.0172014 0.00614082 0.0108755 0.0226565 0.00631303 0.0127686 
0.0133835 0.0040844 0.0116574 0.0198329 0.00730823 0.0114587 0.0230055 0.00192955 0.0130937 
0.0231245 0.00583462 0.0108755 0.0230055 0.00413645 0.0138043 0.021006 0.00539019 0.0120999 
0.0150183 0.00166349 0.0127427 0.0214537 0.000875487 0.012527 0.0129702 0.0081903 0.011883 
0.0200559 0.000994484 0.0137634 0.00888077 0.00912287 0.0112839 0.0047156 0.0121273 0.0112839 
0.00791717 0.0143824 0.0121393 0.00629072 0.00885195 0.010678 0.00420732 0.0150316 0.0116573 
0.0110033 0.0108586 0.0114588 0.00437711 0.00939519 0.0114587 0.00113003 0.0118195 0.01113 
0.00146202 0.0092732 0.0114588 0.00811398 0.0119817 0.0106779 0.000770475 0.0136508 0.0107704 
0.00185466 0.0155508 0.0108754 0.00950839 0.0123624 0.0107705 0.00115268 0.0144953 0.0124296 
0.00681237 0.0106447 0.0112839 0.0105427 0.010281 0.0136847 0.000677981 0.0127597 0.0126068 
0.00371025 0.0110961 0.013096 0.00871135 0.0111493 0.0129372 0.0109143 0.0134056 0.0109944 
0.00268074 0.0128299 0.012427 0.00619508 0.0119312 0.0130603 0.00281692 0.0163743 0.0136659 
0.0106483 0.00818627 0.010678 0.00457306 0.01304 0.0133698 0.0106593 0.0153782 0.0109944 
0.000524971 0.015763 0.0112604 0.000770481 0.0159768 0.0135571 0.0118021 0.0152579 0.0133877 
0.0162955 0.00908678 0.0140226 0.0155068 0.0092183 0.0109944 0.0158481 0.0100533 0.0128407 
0.0173127 0.0153463 0.0112839 0.0140298 0.0115806 0.0116574 0.0207362 0.0109885 0.0109944 
0.0154207 0.0164589 0.0108754 0.0176658 0.00868595 0.01113 0.0224757 0.0126551 0.0114587 
0.0186355 0.0103298 0.010678 0.0211245 0.00916317 0.0108755 0.0167164 0.0109663 0.01113 
0.0228699 0.0101176 0.01113 0.0204222 0.0153994 0.011883 0.0159029 0.0144423 0.012647 
0.018746 0.0125395 0.0114587 0.0162587 0.0131796 0.01113 0.0230055 0.0135134 0.0136951 
0.0123846 0.0105317 0.0134598 0.0142714 0.0159615 0.0137224 0.020635 0.0112873 0.0134272 
0.0231246 0.0148475 0.0119288 0.0147769 0.0133043 0.0133563 0.0232295 0.0152554 0.01352 
0.0141572 0.00996225 0.0136342 0.0136106 0.0148688 0.0116574 0.0230055 0.0164629 0.0109944 
0.00143226 0.0167542 0.012266 0.0061613 0.016712 0.0109944 0.0101611 0.0169178 0.0133575 
0.000770412 0.0169369 0.0107703 0.00628339 0.0241727 0.0114587 0.00302586 0.0197743 0.0109944 
0.00824601 0.0247414 0.010678 0.00128398 0.0212143 0.0112839 0.00702437 0.0212765 0.0108753 
0.0042453 0.0223455 0.0112839 0.00113039 0.0187913 0.01113 0.00238982 0.017218 0.0108754 
0.00526166 0.0201613 0.0111299 0.00986607 0.0202988 0.0107703 0.0104347 0.018758 0.0108754 
0.00342486 0.0233552 0.0134979 0.0090206 0.0167195 0.0107705 0.000770478 0.0231361 0.0107704 
0.00606866 0.021622 0.012445 0.00309812 0.020907 0.0126278 0.00786854 0.0188513 0.011883 
0.00432253 0.0179656 0.0114827 0.0092141 0.0226175 0.0118835 0.00487959 0.0196209 0.0134512 
0.00111102 0.0238132 0.0123643 0.00417717 0.017692 0.0135136 0.00461025 0.0216738 0.0134377 
0.00527284 0.0230079 0.0129379 0.008474 0.0240906 0.0138435 0.00801466 0.0248418 0.0126934 
0.0111016 0.0245989 0.0109943 0.00296755 0.024573 0.0112838 0.0106411 0.0247361 0.0134861 
0.0114734 0.0229776 0.010678 0.000875485 0.0249198 0.0108754 0.0119253 0.0172503 0.0112839 
0.0159775 0.0167923 0.012935 0.012525 0.0186247 0.0126882 0.0132904 0.0170283 0.0129423 
0.0172592 0.0177549 0.01113 0.0142897 0.0222858 0.0109944 0.0147261 0.0242281 0.0109943 
0.0231241 0.02284 0.0108755 0.0194285 0.0188026 0.0112839 0.0119897 0.0204057 0.0114587 
0.0157493 0.0230159 0.0124072 0.018213 0.0217662 0.0107705 0.017548 0.0235102 0.01113 
0.0188491 0.0170221 0.010678 0.0233372 0.0214065 0.0105965 0.0223426 0.0189436 0.0116574 
0.0143779 0.0184656 0.0114588 0.0165496 0.0219183 0.0107705 0.0163018 0.0193568 0.0107703 
0.0206085 0.0220224 0.011883 0.0142703 0.0207728 0.0122875 0.0231245 0.016835 0.0128231 
0.0139793 0.0204235 0.010678 0.0173263 0.020503 0.012933 0.0149343 0.0217647 0.0135877 
0.0174181 0.0248456 0.0128214 0.0182887 0.0232141 0.0130991 0.0231246 0.0211563 0.0126104 
0.0230055 0.023021 0.013123 0.009414 0.0265339 0.0116575 0.00948285 0.0287927 0.0107702 
0.00749398 0.0287876 0.011284 0.008505 0.0322865 0.01113 0.00128393 0.0318158 0.0112839 
0.00328741 0.0274337 0.0112839 0.000994449 0.0275354 0.0109944 0.00518733 0.0288979 0.0108755 
0.00586707 0.0312094 0.0116574 0.0057916 0.0268653 0.0112838 0.0106726 0.0316466 0.0111299 
0.00911927 0.0303945 0.0108755 0.00165742 0.0293375 0.0128234 0.00425093 0.0258777 0.0130852 
0.00353116 0.029758 0.0109944 0.00422583 0.0300834 0.013609 0.00143961 0.0260423 0.0124388 
0.00325577 0.0311892 0.012166 0.00712599 0.026428 0.0132475 0.00736914 0.0258676 0.010678 
0.000770477 0.0272667 0.0137292 0.00235319 0.0321132 0.0127124 0.00338794 0.0326407 0.0109944 
0.00894236 0.0286997 0.0128835 0.000596483 0.0313213 0.0129629 0.0121729 0.0316934 0.0131205 
0.011719 0.0291175 0.0116576 0.00730151 0.0332333 0.0122558 0.00689147 0.033224 0.0107704 
0.0116564 0.0268342 0.0107705 0.000875465 0.0333265 0.0127718 0.0189137 0.0253768 0.0132305 
0.012049 0.0309541 0.010525 0.0223103 0.025119 0.0116574 0.012995 0.0252072 0.0109944 
0.0167732 0.0257091 0.01113 0.0121971 0.0264285 0.0127498 0.0203999 0.0261044 0.0125703 
0.0152218 0.0253443 0.0127326 0.0191492 0.0253104 0.0112839 0.0145925 0.0263917 0.0109946 
0.0160759 0.0277163 0.0109944 0.0182937 0.0281492 0.0112838 0.0144557 0.0290836 0.01113 
0.0128462 0.0321594 0.0109944 0.0225413 0.031487 0.0114587 0.019807 0.0270568 0.010678 
0.0151763 0.0315482 0.0114588 0.0196298 0.0312659 0.0114587 0.0234036 0.0267799 0.0105964 
0.0163855 0.0293963 0.012265 0.0131133 0.0273363 0.0107705 0.0182697 0.029822 0.0124761 
0.0171712 0.0316926 0.010678 0.0233224 0.028049 0.0106776 0.0213077 0.028471 0.0122004 
0.0135413 0.0304418 0.0122767 0.0175826 0.0302077 0.0108754 0.0172762 0.0312722 0.0127179 
0.0140149 0.0264426 0.0137072 0.0188066 0.0322313 0.0134181 0.019702 0.0333851 0.0107704 
0.023322 0.0331851 0.0124946 0.0232295 0.0268633 0.0130742 0.000994497 0.0340572 0.0109944 
0.000875485 0.0360203 0.0108754 0.00273294 0.0342642 0.0107705 0.000875467 0.0377713 0.0108754 
0.00600946 0.0353611 0.010678 0.011585 0.0406005 0.0121393 0.0078922 0.0347991 0.01113 
0.00693881 0.0373649 0.0116574 0.00381796 0.036247 0.0116573 0.00676321 0.0406751 0.0116574 
0.00934282 0.0364623 0.0109944 0.00394778 0.0393542 0.0114587 0.00934796 0.038586 0.0109944 
0.0012839 0.0399833 0.0112839 0.00513212 0.033846 0.01113 0.00128395 0.0354421 0.0129155 
0.0102294 0.0340581 0.0124559 0.00493254 0.0380507 0.013467 0.00485908 0.0403512 0.0136673 
0.00189512 0.0380413 0.0125812 0.00937488 0.0401262 0.0105965 0.00870021 0.0398655 0.0134912 
0.0052023 0.0357452 0.0137183 0.00928221 0.0413957 0.010678 0.0122033 0.0339113 0.0108754 
0.00266148 0.0407796 0.0131953 0.0173794 0.0340248 0.011883 0.0142629 0.0339169 0.0109944 
0.0211846 0.0335141 0.0117192 0.0135694 0.0386497 0.0132996 0.0179654 0.0366985 0.0109944 
0.0230055 0.0338533 0.0109944 0.012822 0.0364037 0.011883 0.0150604 0.0379788 0.0109944 
0.0141549 0.0410422 0.0107705 0.0196179 0.0390116 0.011883 0.0202098 0.0357501 0.0114587 
0.0232294 0.0402125 0.0107705 0.0155357 0.0360475 0.0109944 0.0172954 0.0383172 0.0107705 
0.0227052 0.0383527 0.0114963 0.0228699 0.0359692 0.01113 0.0179231 0.0409408 0.0108754 
0.0222114 0.0403933 0.0130642 0.0147493 0.0397798 0.0120774 0.0161301 0.0393646 0.0107704 
0.0159908 0.0414136 0.01113 0.0170262 0.0399461 0.0120226 0.0146322 0.0379866 0.0125266 
0.0142755 0.0414488 0.0128534 0.00581517 0.0493367 0.0121741 0.00334419 0.0496544 0.0136903 
0.00744608 0.0431944 0.0134404 0.00282665 0.0437108 0.0136154 0.00848584 0.0484806 0.0124938 
0.00581895 0.0477584 0.0127277 0.0103693 0.0466141 0.0131021 0.00472079 0.0435372 0.0128389 
0.00663196 0.0437041 0.0121038 0.00288005 0.0462229 0.0109944 0.0104788 0.0478436 0.0114587 
0.00151993 0.0455212 0.0122648 0.000875485 0.0465945 0.0108754 0.00128392 0.0480642 0.0124038 
0.00371285 0.0444167 0.0109944 0.000770426 0.0449554 0.0107704 0.00713226 0.04941 0.0109944 
0.00165798 0.0428768 0.0116574 0.0111292 0.044593 0.011883 0.00835341 0.0454917 0.01113 
0.00577675 0.0456592 0.0114587 0.0078614 0.047554 0.0109944 0.00383166 0.048436 0.0114587 
0.00602862 0.0479053 0.0108754 0.00841041 0.0430832 0.0112839 0.00559858 0.0433402 0.0108754 
[...]
POINT_DATA 538
FIELD FieldData 7
id 1 538 int
1 2 3 4 5 6 7 8 9 
10 11 12 13 14 15 16 17 18 
19 20 21 22 24 25 26 29 31 
33 34 35 38 39 45 55 56 57 
58 59 60 61 62 63 64 65 66 
67 68 69 70 71 72 73 76 77 
80 81 82 85 90 95 96 106 107 
108 109 110 111 112 113 114 115 116 
117 118 119 120 121 122 124 126 128 
129 131 132 133 134 141 144 155 162 
163 164 165 166 167 168 169 170 171 
172 173 174 175 176 177 178 179 181 
184 187 190 191 192 194 197 198 200 
219 220 222 223 224 225 226 227 228 
229 230 231 232 233 234 235 236 237 
238 239 240 241 242 244 245 248 250 
251 254 262 264 265 270 273 275 276 
279 283 284 285 286 287 288 289 290 
291 292 293 294 295 296 297 298 299 
300 301 302 303 305 306 308 309 310 
317 330 331 332 333 334 335 336 337 
338 339 340 341 342 343 344 346 347 
348 349 351 353 357 359 362 366 368 
375 376 379 380 382 385 386 387 388 
389 390 391 392 393 394 395 396 397 
398 399 400 401 402 403 404 405 406 
408 409 410 411 413 415 416 417 418 
419 421 435 436 437 439 440 441 442 
443 444 445 446 447 448 449 450 451 
453 455 456 457 458 459 460 466 478 
479 497 498 499 500 501 502 503 504 
505 506 507 508 509 510 511 513 514 
515 516 517 522 523 524 535 486 487 
488 489 490 491 492 493 494 495 496 
512 518 519 520 521 525 526 527 528 
529 530 531 532 533 534 536 537 538 
438 452 454 461 462 463 464 465 467 
468 469 470 471 472 473 474 475 476 
477 480 481 482 483 484 485 355 356 
358 360 361 363 364 365 367 369 370 
371 372 373 374 377 378 381 383 384 
407 412 414 420 422 423 424 425 426 
427 428 429 430 431 432 433 434 266 
267 268 269 271 272 274 277 278 280 
281 282 304 307 311 312 313 314 315 
316 318 319 320 321 322 323 324 325 
326 327 328 329 345 350 352 354 207 
208 209 210 211 212 213 214 215 216 
217 218 221 243 246 247 249 252 253 
255 256 257 258 259 260 261 263 142 
143 145 146 147 148 149 150 151 152 
153 154 156 157 158 159 160 161 180 
182 183 185 186 188 189 193 195 196 
199 201 202 203 204 205 206 86 87 
88 89 91 92 93 94 97 98 99 
100 101 102 103 104 105 123 125 127 
130 135 136 137 138 139 140 23 27 
28 30 32 36 37 40 41 42 43 
44 46 47 48 49 50 51 52 53 
54 74 75 78 79 83 84 
type 1 538 int
1 1 1 1 1 1 1 1 1 
1 1 1 1 1 1 1 1 1 
1 1 1 1 1 1 1 1 1 
1 1 1 1 1 1 1 1 1 
1 1 1 1 1 1 1 1 1 
1 1 1 1 1 1 1 1 1 
1 1 1 1 1 1 1 1 1 
1 1 1 1 1 1 1 1 1 
1 1 1 1 1 1 1 1 1 
1 1 1 1 1 1 1 1 1 
1 1 1 1 1 1 1 1 1 
1 1 1 1 1 1 1 1 1 
1 1 1 1 1 1 1 1 1 
1 1 1 1 1 1 1 1 1 
1 1 1 1 1 1 1 1 1 
1 1 1 1 1 1 1 1 1 
1 1 1 1 1 1 1 1 1 
1 1 1 1 1 1 1 1 1 
1 1 1 1 1 1 1 1 1 
1 1 1 1 1 1 1 1 1 
1 1 1 1 1 1 1 1 1 
1 1 1 1 1 1 1 1 1 
1 1 1 1 1 1 1 1 1 
1 1 1 1 1 1 1 1 1 
1 1 1 1 1 1 1 1 1 
1 1 1 1 1 1 1 1 1 
1 1 1 1 1 1 1 1 1 
1 1 1 1 1 1 1 1 1 
1 1 1 1 1 1 1 1 1 
1 1 1 1 1 1 1 1 1 
1 1 1 1 1 1 1 1 1 
1 1 1 1 1 1 1 1 1 
1 1 1 1 1 1 1 1 1 
1 1 1 1 1 1 1 1 1 
1 1 1 1 1 1 1 1 1 
1 1 1 1 1 1 1 1 1 
1 1 1 1 1 1 1 1 1 
1 1 1 1 1 1 1 1 1 
1 1 1 1 1 1 1 1 1 
1 1 1 1 1 1 1 1 1 
1 1 1 1 1 1 1 1 1 
1 1 1 1 1 1 1 1 1 
1 1 1 1 1 1 1 1 1 
1 1 1 1 1 1 1 1 1 
1 1 1 1 1 1 1 1 1 
1 1 1 1 1 1 1 1 1 
1 1 1 1 1 1 1 1 1 
1 1 1 1 1 1 1 1 1 
1 1 1 1 1 1 1 1 1 
1 1 1 1 1 1 1 1 1 
1 1 1 1 1 1 1 1 1 
1 1 1 1 1 1 1 1 1 
1 1 1 1 1 1 1 1 1 
1 1 1 1 1 1 1 1 1 
1 1 1 1 1 1 1 1 1 
1 1 1 1 1 1 1 1 1 
1 1 1 1 1 1 1 1 1 
1 1 1 1 1 1 1 1 1 
1 1 1 1 1 1 1 1 1 
1 1 1 1 1 1 1 
i 3 538 int
0 0 0 0 0 0 0 0 0 
0 0 0 0 0 0 0 0 0 
0 0 0 0 0 0 0 0 0 
0 0 0 0 0 0 0 0 0 
0 0 0 0 0 0 0 0 0 
0 0 0 0 0 0 0 0 0 
0 0 0 0 0 0 0 0 0 
0 0 0 0 0 0 0 0 0 
0 0 0 0 0 0 0 0 0 
0 0 0 0 0 0 0 0 0 
0 0 0 0 0 0 0 0 0 
0 0 0 0 0 0 0 0 0 
0 0 0 0 0 0 0 0 0 
0 0 0 0 0 0 0 0 0 
0 0 0 0 0 0 0 0 0 
0 0 0 0 0 0 0 0 0 
0 0 0 0 0 0 0 0 0 
0 0 0 0 0 0 0 0 0 
0 0 0 0 0 0 0 0 0 
0 0 0 0 0 0 0 0 0 
0 0 0 0 0 0 0 0 0 
0 0 0 0 0 0 0 0 0 
0 0 0 0 0 0 0 0 0 
0 0 0 0 0 0 0 0 0 
0 0 0 0 0 0 0 0 0 
0 0 0 0 0 0 0 0 0 
0 0 0 0 0 0 0 0 0 
0 0 0 0 0 0 0 0 0 
0 0 0 0 0 0 0 0 0 
0 0 0 0 0 0 0 0 0 
0 0 0 0 0 0 0 0 0 
0 0 0 0 0 0 0 0 0 
0 0 0 0 0 0 0 0 0 
0 0 0 0 0 0 0 0 0 
0 0 0 0 0 0 0 0 0 
0 0 0 0 0 0 0 0 0 
0 0 0 0 0 0 0 0 0 
0 0 0 0 0 0 0 0 0 
0 0 0 0 0 0 0 0 0 
0 0 0 0 0 0 0 0 0 
0 0 0 0 0 0 0 0 0 
0 0 0 0 0 0 0 0 0 
0 0 0 0 0 0 0 0 0 
0 0 0 0 0 0 0 0 0 
0 0 0 0 0 0 0 0 0 
0 0 0 0 0 0 0 0 0 
0 0 0 0 0 0 0 0 0 
0 0 0 0 0 0 0 0 0 
0 0 0 0 0 0 0 0 0 
0 0 0 0 0 0 0 0 0 
0 0 0 0 0 0 0 0 0 
0 0 0 0 0 0 0 0 0 
0 0 0 0 0 0 0 0 0 
0 0 0 0 0 0 0 0 0 
0 0 0 0 0 0 0 0 0 
0 0 0 0 0 0 0 0 0 
0 0 0 0 0 0 0 0 0 
0 0 0 0 0 0 0 0 0 
0 0 0 0 0 0 0 0 0 
0 0 0 0 0 0 0 0 0 
0 0 0 0 0 0 0 0 0 
0 0 0 0 0 0 0 0 0 
0 0 0 0 0 0 0 0 0 
0 0 0 0 0 0 0 0 0 
0 0 0 0 0 0 0 0 0 
0 0 0 0 0 0 0 0 0 
0 0 0 0 0 0 0 0 0 
0 0 0 0 0 0 0 0 0 
0 0 0 0 0 0 0 0 0 
0 0 0 0 0 0 0 0 0 
0 0 0 0 0 0 0 0 0 
0 0 0 0 0 0 0 0 0 
0 0 0 0 0 0 0 0 0 
0 0 0 0 0 0 0 0 0 
0 0 0 0 0 0 0 0 0 
0 0 0 0 0 0 0 0 0 
0 0 0 0 0 0 0 0 0 
0 0 0 0 0 0 0 0 0 
0 0 0 0 0 0 0 0 0 
0 0 0 0 0 0 0 0 0 
0 0 0 0 0 0 0 0 0 
0 0 0 0 0 0 0 0 0 
0 0 0 0 0 0 0 0 0 
0 0 0 0 0 0 0 0 0 
0 0 0 0 0 0 0 0 0 
0 0 0 0 0 0 0 0 0 
0 0 0 0 0 0 0 0 0 
0 0 0 0 0 0 0 0 0 
0 0 0 0 0 0 0 0 0 
0 0 0 0 0 0 0 0 0 
0 0 0 0 0 0 0 0 0 
0 0 0 0 0 0 0 0 0 
0 0 0 0 0 0 0 0 0 
0 0 0 0 0 0 0 0 0 
0 0 0 0 0 0 0 0 0 
0 0 0 0 0 0 0 0 0 
0 0 0 0 0 0 0 0 0 
0 0 0 0 0 0 0 0 0 
0 0 0 0 0 0 0 0 0 
0 0 0 0 0 0 0 0 0 
0 0 0 0 0 0 0 0 0 
0 0 0 0 0 0 0 0 0 
0 0 0 0 0 0 0 0 0 
0 0 0 0 0 0 0 0 0 
0 0 0 0 0 0 0 0 0 
0 0 0 0 0 0 0 0 0 
0 0 0 0 0 0 0 0 0 
0 0 0 0 0 0 0 0 0 
0 0 0 0 0 0 0 0 0 
0 0 0 0 0 0 0 0 0 
0 0 0 0 0 0 0 0 0 
0 0 0 0 0 0 0 0 0 
0 0 0 0 0 0 0 0 0 
0 0 0 0 0 0 0 0 0 
0 0 0 0 0 0 0 0 0 
0 0 0 0 0 0 0 0 0 
0 0 0 0 0 0 0 0 0 
0 0 0 0 0 0 0 0 0 
0 0 0 0 0 0 0 0 0 
0 0 0 0 0 0 0 0 0 
0 0 0 0 0 0 0 0 0 
0 0 0 0 0 0 0 0 0 
0 0 0 0 0 0 0 0 0 
0 0 0 0 0 0 0 0 0 
0 0 0 0 0 0 0 0 0 
0 0 0 0 0 0 0 0 0 
0 0 0 0 0 0 0 0 0 
0 0 0 0 0 0 0 0 0 
0 0 0 0 0 0 0 0 0 
0 0 0 0 0 0 0 0 0 
0 0 0 0 0 0 0 0 0 
0 0 0 0 0 0 0 0 0 
0 0 0 0 0 0 0 0 0 
0 0 0 0 0 0 0 0 0 
0 0 0 0 0 0 0 0 0 
0 0 0 0 0 0 0 0 0 
0 0 0 0 0 0 0 0 0 
0 0 0 0 0 0 0 0 0 
0 0 0 0 0 0 0 0 0 
0 0 0 0 0 0 0 0 0 
0 0 0 0 0 0 0 0 0 
0 0 0 0 0 0 0 0 0 
0 0 0 0 0 0 0 0 0 
0 0 0 0 0 0 0 0 0 
0 0 0 0 0 0 0 0 0 
0 0 0 0 0 0 0 0 0 
0 0 0 0 0 0 0 0 0 
0 0 0 0 0 0 0 0 0 
0 0 0 0 0 0 0 0 0 
0 0 0 0 0 0 0 0 0 
0 0 0 0 0 0 0 0 0 
0 0 0 0 0 0 0 0 0 
0 0 0 0 0 0 0 0 0 
0 0 0 0 0 0 0 0 0 
0 0 0 0 0 0 0 0 0 
0 0 0 0 0 0 0 0 0 
0 0 0 0 0 0 0 0 0 
0 0 0 0 0 0 0 0 0 
0 0 0 0 0 0 0 0 0 
0 0 0 0 0 0 0 0 0 
0 0 0 0 0 0 0 0 0 
0 0 0 0 0 0 0 0 0 
0 0 0 0 0 0 0 0 0 
0 0 0 0 0 0 0 0 0 
0 0 0 0 0 0 0 0 0 
0 0 0 0 0 0 0 0 0 
0 0 0 0 0 0 0 0 0 
0 0 0 0 0 0 0 0 0 
0 0 0 0 0 0 0 0 0 
0 0 0 0 0 0 0 0 0 
0 0 0 0 0 0 0 0 0 
0 0 0 0 0 0 0 0 0 
0 0 0 0 0 0 0 0 0 
0 0 0 0 0 0 0 0 0 
0 0 0 0 0 0 0 0 0 
0 0 0 0 0 0 0 0 0 
0 0 0 0 0 0 0 0 0 
0 0 0 0 0 0 0 0 0 
0 0 0 0 0 0 0 0 0 
0 0 0 
v 3 538 double
-0.0102315 -0.027376 0.00152232 0.0894949 -0.00067821 -8.65508e-12 0.0075723 -0.00299365 0.00155915 
0.0401385 -0.0110044 3.84594e-05 -0.000141747 -0.0102614 -0.000309063 0.0551916 0.0408322 0.000626097 
0.00091939 -0.00061201 -1.65353e-05 0.0110172 -0.0015167 -0.000944396 -0.000136464 -0.00968143 -0.000150664 
0.014035 -0.000297935 0.000317595 0.0891787 0.0240814 -1.92884e-12 0.01474 0.0047288 -5.11695e-12 
-0.0155282 0.0100349 -0.00170461 -0.000797514 -0.0151281 -0.000112349 -0.000161553 -3.05999e-05 -0.0123739 
-0.0121517 -0.0125587 0.000237122 0.127844 9.32225e-05 -0.0133553 -0.000288168 -0.011514 8.72239e-05 
0.0779567 -0.0198068 -9.99416e-12 -0.006423 -0.000759733 0.00165998 0.0223162 0.0412644 -0.0834412 
-0.139533 -0.246662 -0.0688139 4.80704e-05 0.0406684 -0.043838 0.00851404 0.00729273 -0.000655114 
0.00583532 -0.0420718 3.59488e-05 0.000447496 -0.00628438 0.00167567 0.0748884 0.0878239 -0.0554406 
-0.123994 -0.145477 -0.0422517 0.00348431 0.000189156 0.0138946 0.678977 6.6461e-05 -0.57865 
-0.00145305 -0.0107575 -0.00092729 0.0618519 -0.0130226 -0.00241146 0.0231472 0.0445851 -0.0401295 
-0.0166548 0.0232592 -0.045265 -0.00679449 0.00558257 8.30773e-12 0.010411 -0.000352488 2.89022e-05 
-0.0256446 0.0204889 0.000119151 -0.0748622 -0.00757958 1.63471e-05 -0.00324247 0.0255892 0.000113543 
0.0239288 -0.0737693 0.000673958 -1.78281e-06 7.95504e-07 -9.1396e-06 0.0114198 3.78849e-05 0.000310884 
0.0562747 0.0129941 -0.000590106 -0.0184097 -4.70393e-05 -2.89208e-05 -0.00902876 0.022152 -0.000421608 
0.0299267 -0.00129438 -0.000733735 -0.000132123 0.0485097 0.000166266 0.00742193 -0.0365581 -2.62758e-05 
0.196832 0.0373005 -0.146091 -0.0240593 0.0424159 -8.65508e-12 -0.0385722 -0.0745588 -0.0413185 
-0.00555003 0.00445087 0.000155196 0.00701247 -0.0628641 1.67376e-05 6.1752e-06 0.0115968 -0.00473647 
9.33507e-05 -0.018112 3.25122e-05 4.08255e-06 0.193485 -0.0572 0.0208924 -0.069929 0.00621231 
0.0289188 0.0223848 -0.0141954 -0.00476483 2.66282e-05 -0.00485188 0.102256 -0.00961581 -0.000231831 
-0.00939473 -3.34076e-05 -0.0100834 0.00594424 0.0679384 -0.00107396 -0.0330036 0.0315679 0.000215651 
0.0448253 -0.072042 0.00133657 0.00142307 0.0284191 1.1861e-05 0.0693179 0.0697411 0.000515441 
0.0676306 -0.0324406 -0.00132122 -0.00456996 0.00994952 5.41238e-05 0.000483083 -0.00918293 0.000441137 
-0.00352522 -0.00965832 0.000210476 0.0875587 -0.0673878 -0.000185442 -0.000133367 -0.00986485 -0.000524107 
0.0569195 0.0133059 0.000466697 0.0750412 -0.0254257 -0.000242794 -0.0142559 0.0311304 -0.0189535 
-0.0192318 0.0390354 0.00264126 -0.0334446 -0.480196 -0.29886 7.97743e-05 0.0266414 -0.0223299 
-0.112104 0.00488869 -0.0386045 0.0438875 -0.0796052 -0.0275527 0.137004 -0.110436 -2.01444e-07 
0.0262756 0.0678676 -0.089211 -0.0437132 -0.0034386 0.0181433 -0.053691 0.0153848 -0.042441 
0.0110523 -0.0921849 5.18281e-12 -0.0120831 0.0483726 -0.00732193 0.0605568 -0.120451 -0.000439924 
1.9719e-05 -0.0459114 -0.163391 0.0008659 0.0287927 -0.011102 -0.258472 -0.302776 -0.262602 
0.355526 -0.055237 -0.0848607 0.0401244 0.145342 -4.51115e-05 0.167387 0.0225634 0.0463676 
0.0277484 -0.0340603 6.79241e-05 0.100992 -0.0733282 -8.45146e-05 -0.0488968 -0.0865076 1.09977e-06 
-0.0164734 -0.0189275 0.000511985 0.212583 0.259761 -0.000388474 -0.08423 -0.0494978 3.14683e-05 
-0.0825016 -0.0138473 1.33612e-11 0.0197203 -0.0719067 -2.73594e-05 0.117335 -0.0096674 0.00134332 
0.000129439 -0.0364451 1.52613e-05 0.0253927 0.0940001 -8.58125e-05 0.0444729 -0.0444547 0.0108499 
0.0658242 0.0650293 -5.78071e-05 0.0309015 -0.0339152 -6.14951e-05 8.13119e-06 0.306129 -0.15644 
-0.012454 0.0382423 0.0641667 0.0302558 -0.0761302 -0.000671511 -0.0877047 -0.131855 0.00394425 
-0.00157085 -0.0541997 -0.0899176 0.0318665 -0.0404841 -0.00158188 -4.00161e-05 0.303584 -0.181387 
0.0600704 0.18361 -0.160409 0.0415785 -0.0840903 0.000580374 -0.000590934 -0.0014885 0.000257518 
-0.0618507 0.0696489 -0.0153126 0.112465 -0.025341 -0.0021571 0.00665646 -0.0346454 -0.00488472 
-0.0117491 0.0251321 -0.0188205 0.0657729 -0.0484204 -0.000750758 -0.00217337 0.0693459 -0.0011066 
-0.00146641 7.01748e-05 8.02747e-12 -0.00153624 0.0589204 0.000275277 -0.121035 -0.0429797 0.00463705 
-0.0168766 0.0484526 9.80285e-05 0.000644249 0.0222245 -1.60041e-11 -0.00978625 0.0336719 0.00099142 
0.0918133 0.104166 -0.0152841 -0.0286229 -0.108108 0.00217388 0.0303676 -0.0898177 -0.00107898 
-0.238205 -0.077431 -0.0246856 -0.00423494 -0.0242151 5.75064e-12 -0.000618469 0.0570854 -0.000726364 
-0.0342642 0.148607 0.0205114 -0.00938291 0.0529543 0.0106689 0.0363358 0.00654285 0.000821281 
0.0850067 0.051942 -0.322604 -0.0717428 -0.122556 0.014706 -0.0311565 -0.0178035 -0.080263 
0.0179936 0.0372446 0.00292683 0.289009 -0.242884 -0.340004 -0.397166 -0.133065 -0.494342 
-0.230358 0.080928 -0.10083 0.0665455 -0.0519626 0.0146502 0.0530677 -0.0495188 0.0164387 
-0.10389 -0.0829151 0.00424122 0.00634604 0.0588921 -0.00065449 0.234301 -0.131559 -0.145536 
0.0629502 0.0214096 3.40489e-12 0.000118971 0.0311703 0.000377434 0.0249756 -0.0971496 0.000611583 
0.00660929 -0.0296369 -0.00326632 -0.0462626 0.034758 -0.0987938 0.0260423 -0.0734434 0.00551697 
0.0145084 -0.0348464 0.00010673 -0.226944 0.0265164 -0.000129445 0.0975456 -0.0303021 -0.000150534 
-7.2996e-05 -0.00220841 5.42531e-12 0.0175736 -0.0475686 -0.00372644 -0.118746 0.081093 -3.38091e-05 
-0.0950349 -0.112522 0.0854456 -0.0200838 -0.00318412 -5.38315e-05 -0.182219 -0.058316 0.000143833 
0.117771 0.183565 -0.00017193 -0.000516495 -0.0029923 1.17655e-11 0.00548334 0.00141863 0.000891494 
0.0101445 -0.0688178 -7.64371e-05 0.00773952 0.0063516 2.23466e-12 -0.00313533 -0.0473134 -0.00228028 
-0.0182196 -0.0158507 -0.000521655 -0.0678614 -0.0483309 -0.00449215 -0.000269167 -0.00235444 0.000181961 
-0.161007 -0.106905 0.00757808 0.010311 -0.0733692 0.00214679 -0.134497 -0.0864735 0.0663266 
0.0206355 0.0379474 0.0851631 -0.0433813 -0.0187298 -0.0459202 -0.000282057 0.0158833 -0.0250133 
0.000211241 -0.0317819 -0.0244376 -0.0199135 -0.000689822 -0.00157719 -0.0375869 0.00218466 0.000499346 
-0.0373263 -0.026822 0.00132978 0.0307933 0.0228927 0.000433025 -0.000771081 0.0554849 0.000116107 
0.00504341 -0.104417 0.000933761 -2.37967e-05 -0.132201 -1.37392e-05 0.103803 -0.0341857 0.000330984 
0.00874362 0.000254915 0.000777831 0.0118812 -0.0641305 -3.37291e-05 0.0252905 0.00549037 0.000438912 
0.011461 0.0153903 0.000144284 -0.000452505 -0.0156866 -0.114734 0.0461078 -0.0387318 0.0397855 
0.112657 -0.0142018 0.000272092 0.043654 -0.199391 -0.0858902 -0.0451202 -0.0632675 0.0850268 
0.0396011 -0.0154999 -0.0148396 -0.0119358 -0.0699 0.0181248 0.043072 -0.0226094 8.56092e-09 
2.89834e-05 0.0390847 0.0109832 0.253907 0.352503 -0.252321 0.0208268 -0.00262122 -0.000427044 
0.439833 0.326908 -0.401329 -2.02706e-05 -0.0219248 -0.02238 0.154724 -0.0881624 0.0162779 
-0.0381464 -0.019552 0.0133914 0.0783371 0.109729 -0.0201779 0.0156631 -0.00555977 -0.0013726 
0.0420597 -0.0855145 -3.91604e-07 -4.14931e-05 0.0537195 0.00224855 0.0967169 -0.0260597 0.0018943 
0.0162351 -0.0260568 -0.000151762 -0.0157049 -0.0179204 0.00210979 -0.0374469 -0.251725 0.00199925 
0.0368637 -0.116813 -0.000413002 0.141424 -0.00494324 -0.0364831 -0.0485044 -0.0152298 -0.0681543 
0.0721497 -0.105587 0.0352656 0.0213114 -0.235048 -9.39912e-05 -0.0290968 -0.245887 -0.0213687 
-0.131506 -0.114194 0.00546947 -0.127412 -0.0536211 0.00226119 -0.0309239 0.0228079 0.00220315 
0.0977272 -0.0798876 5.0959e-05 2.47293e-05 -0.013639 0.00159523 -0.19098 -0.151594 4.24848e-05 
0.116594 -0.0123758 -0.000708096 -0.00246664 0.113922 -0.000867377 0.000339918 -0.0313583 -0.000744625 
0.113362 -0.125385 -0.220472 0.018049 -0.0154812 3.34211e-07 0.333526 -0.111962 0.129533 
0.112801 0.0536337 -1.2356e-07 -0.00241475 -0.0324093 0.00247497 -0.0875342 -0.00837613 -0.106824 
0.163244 -0.188067 -0.167873 0.226623 0.0851831 2.0035e-05 0.208123 -0.096597 -0.508731 
0.249981 0.339769 -0.248524 0.172931 0.204897 0.0281093 0.0451535 0.112 0.000446334 
-0.000783738 -0.0120032 0.00601258 -0.00525537 0.0755582 -0.1143 0.000611912 0.0560169 -3.29561e-05 
-2.59739e-06 0.0227954 9.39375e-05 0.00926048 -0.00727531 4.34502e-05 0.000143136 0.0228994 0.000174302 
-0.00814162 0.00608401 -4.06234e-12 -0.0475891 0.00486416 9.5934e-05 -0.0355093 0.0252539 -0.00047794 
-0.00142698 0.0365825 0.000106404 0.0144205 -0.00815158 -4.79288e-06 -0.0206184 0.035014 -5.26112e-05 
0.000948005 0.0391882 8.41922e-10 -0.000469057 -0.00834468 0.000166144 -0.00842821 0.014022 -3.52988e-09 
0.000278714 -0.00325907 -0.000115802 0.0189483 -0.00131568 -0.000737875 -0.000211989 0.0533309 0.00895195 
0.146362 0.164194 -0.245469 -0.00804369 -0.00303592 0.00779142 -0.0456396 0.0728858 -0.0178426 
0.0188908 -0.00137356 -0.00684909 -0.0505289 0.014942 1.51613e-10 -0.0303867 -0.388344 -0.176405 
0.610295 -0.227305 -0.453243 0.0401393 0.0250797 -4.41792e-12 0.328825 0.00441362 -0.00093824 
-0.0959851 -0.0650389 -0.0241227 0.0319808 0.068802 0.000320279 0.00943573 0.00248215 -1.39659e-11 
0.0180271 -0.0104681 0.0616715 0.288801 0.169845 -0.297905 0.021073 0.0532541 9.28149e-09 
-0.00181172 -0.0257439 0.000155794 -0.0773858 0.103842 0.000123527 0.0113804 -0.0226858 -0.000155425 
0.00748335 -0.0713854 9.56116e-13 -0.0330781 -0.0206609 0.000780432 0.070657 0.00285692 -0.00139462 
-0.0167913 0.556745 5.13452e-05 -0.0975275 -0.0493616 6.93863e-06 -0.0922779 0.0116455 -5.96477e-11 
-0.0484746 0.157861 -1.03835 -0.000532568 -0.0254737 7.66518e-07 -0.022014 -0.015408 -0.00135749 
0.129317 -0.201163 -0.147087 -0.055327 -0.0223917 -0.0205787 -0.0366934 0.0143999 -9.69786e-05 
-0.0246395 -0.0344602 -0.000177706 -0.0349228 -0.0298637 0.0189859 0.269488 -0.294219 0.0734431 
-0.0372194 -0.0277428 0.00172139 0.167569 -0.0297862 -0.0945991 0.083753 0.417948 -0.217215 
0.457757 -0.295353 -0.392494 -0.0267737 0.322313 -0.124082 0.0251211 0.0211947 -0.00182766 
0.0132577 -0.00208752 -0.00102787 -0.161797 -0.0207539 -0.0434341 -0.00828804 -0.00333161 -0.00535045 
-0.00590445 -0.00422573 0.000680194 -0.0317269 0.00114579 -0.000584743 0.0257253 0.0207002 3.88544e-05 
-0.0190364 -0.00154471 0.00999993 0.000263533 -0.00178102 -0.000420975 0.00134083 0.00054897 -0.0037792 
-0.0109542 0.0104336 0.000916747 0.000219875 -0.00152481 0.000148691 -0.0252771 0.0208182 -5.19263e-05 
-0.00214197 -0.00276397 -0.000237747 0.00391065 0.0152668 0.000194448 0.00597463 0.0195723 -0.000129945 
-0.00335719 -0.00334563 -9.60542e-05 0.0166672 0.0227784 0.000201552 0.00664311 -0.0130794 0.000765268 
0.00979488 -0.00492248 -0.000414318 0.00189928 0.0193197 -0.000152738 -0.00503295 -0.00621978 0.000146584 
-0.150743 0.02199 -0.0725432 -0.00384959 -0.0083128 -0.000496339 0.000134431 0.0511894 0.0246446 
0.0937994 -0.339003 -0.138522 0.0504004 0.107451 0.000490344 -0.0141279 -0.00843589 -0.037076 
0.0792548 0.179993 6.86208e-12 0.0341237 0.0940706 0.000342565 -0.000276957 -0.0577451 0.0135788 
0.0359079 0.0124594 -0.011206 0.158114 0.333859 -0.145117 -0.0164433 -0.0272931 0.000138775 
0.0511058 -0.00928809 -0.0423869 -0.0270428 -0.0237945 -3.10628e-05 0.0273768 0.00337729 -0.20579 
-0.00508518 -0.0304328 -4.71234e-08 0.023872 -0.0524864 -0.000502576 0.0463909 0.0661683 -0.00312832 
-0.0369354 0.0199437 -0.000470096 0.0187255 0.00569642 0.000321762 -0.06575 0.00858123 -0.0115979 
0.00208147 -0.059256 -0.000248984 0.00777374 -0.0468882 -0.000703159 0.0387274 0.0651848 0.000497525 
-0.00770478 -0.0495909 3.43296e-05 -0.0169728 -0.0365266 0.000393964 -7.09368e-06 -0.0386482 0.0175551 
1.55139e-05 -0.017689 -4.74687e-05 -0.0351983 -0.0356858 -0.00029179 0.0320978 -0.00400545 7.53832e-07 
-0.0292434 0.00779257 0.0237013 -0.085208 -0.0870879 0.0112644 -0.000227649 0.0168586 0.0196194 
-0.0412749 0.199405 -0.271625 0.00584643 -0.0177644 0.0221683 -0.0237397 -0.01022 0.0191386 
-0.126551 0.319033 -0.0135837 -2.51843e-05 0.0127105 -0.00963499 -0.000181939 -5.31014e-05 -1.50931e-13 
0.00473997 -0.00915356 -0.00848975 -0.173417 0.100672 0.0665903 -0.0525721 0.230646 -0.179386 
-2.94639e-05 0.0203707 -0.0225889 -0.00985147 -0.014029 0.000138508 0.0464301 -0.0307723 0.000290315 
0.0331754 -0.0147378 -0.00575424 -0.0206632 -0.00413255 0.000944213 0.0226128 0.000484409 -4.05159e-05 
-0.0160924 0.00224615 0.000298063 0.0220098 -0.0252917 -8.54758e-06 0.00284951 -0.0416538 0.00044954 
-0.00882421 0.0228751 -1.38552e-05 -0.0289062 -0.014371 0.000482189 1.77107e-05 0.0387935 -5.01524e-05 
0.0471781 -0.0146554 -6.72802e-05 0.027437 -0.00347042 -0.000388025 0.028998 -0.0108518 -0.00147055 
0.0109411 -0.0239011 0.000240735 0.000309779 -0.0067932 0.00030072 0.00518734 -0.119386 0.00620939 
-7.5671e-05 0.00570658 -1.46791e-06 -0.0318604 -0.0543577 -0.00825634 -0.0083165 -0.00845286 0.0070268 
-0.000683329 0.00922528 -0.0177559 -0.0239876 0.023273 -0.000910234 -0.102125 -0.55002 -0.47825 
0.0904255 -0.328612 -0.317843 0.342171 0.15307 -0.173156 0.1183 -0.0197678 -0.117291 
-0.0666732 -0.0218299 -0.0288063 -0.229365 0.11674 -0.0205402 -0.014349 0.0486585 -0.00786937 
-0.026505 0.00791023 0.000104338 -0.295383 -0.0511077 -0.118547 -0.0451601 0.0631851 0.000423243 
0.0266856 0.0174771 2.49231e-09 -0.0147683 0.0150965 -0.0165388 -0.0457624 -0.00181222 0.01946 