# vtk DataFile Version 4.0
Generated by LIGGGHTS
ASCII
DATASET POLYDATA
POINTS 894 float
0.00844804 0.00680527 0.0126174 0.00292458 0.00459217 0.0158849 0.0131888 0.00166028 0.0151782 
0.015665 0.00583687 0.0160693 0.00795691 0.0119102 0.0121619 0.0090251 0.0153598 0.0134847 
0.00219654 0.0162748 0.0153854 0.0231063 0.0107814 0.0164219 0.0104062 0.0268639 0.0149513 
0.0113487 0.0306972 0.0162713 0.0214659 0.0290058 0.0131023 0.0176603 0.0295638 0.0143368 
0.0143331 0.0287116 0.0146711 0.00673508 0.0392073 0.0146358 0.00343213 0.0370204 0.0155303 
0.00797306 0.0351687 0.0156094 0.0178733 0.0377034 0.0140601 0.0201038 0.0414697 0.0148663 
0.0225284 0.0343253 0.0151269 0.0065439 0.0476948 0.0153937 0.0160413 0.0442543 0.0150824 
0.0139264 0.0431249 0.0157693 0.00217018 0.0566907 0.0136106 0.00418213 0.0535135 0.0144976 
0.00845178 0.0534956 0.0146009 0.00522034 0.0568425 0.0165354 0.0215164 0.0582485 0.0161143 
0.00470345 0.0590695 0.0149715 0.0116891 0.0583731 0.0165615 0.0217693 0.0636077 0.0148004 
0.022676 0.0600376 0.0161287 0.00890187 0.0679317 0.0153007 0.00254164 0.0667222 0.0154209 
0.0169642 0.0685253 0.0144611 0.0157491 0.0706358 0.0160207 0.0118552 0.00782291 0.0185962 
0.00959177 0.00278027 0.0185801 0.0073533 0.00749568 0.021164 0.0113896 0.00435135 0.021051 
0.00284316 0.00317792 0.0231653 0.0057805 0.00250871 0.0229094 0.00563822 0.00540554 0.0203443 
0.000958321 0.00782428 0.0235192 0.0103529 0.00171083 0.0239947 0.0103416 0.00830573 0.02475 
0.0206312 0.00376663 0.0174152 0.0129011 0.00619126 0.0204298 0.0176451 0.00332783 0.0188263 
0.018421 0.00652441 0.0197802 0.0217211 0.00664946 0.0214291 0.0226663 0.00139677 0.0190629 
0.0158177 0.000924417 0.0235267 0.0163819 0.000772565 0.0193069 0.0211612 0.00165672 0.021621 
0.018264 0.00760126 0.0242938 0.0158421 0.00641332 0.0249257 0.00783978 0.0101656 0.016914 
0.0107832 0.0140274 0.0197984 0.00357581 0.00836295 0.0204226 0.00461686 0.0110043 0.0184286 
0.0101112 0.0114576 0.0198253 0.0085781 0.0131697 0.0231417 0.00510319 0.00943847 0.0232431 
0.00715812 0.0153292 0.019821 0.000822782 0.0140703 0.0219193 0.00967722 0.0161609 0.0243324 
0.00688604 0.0147177 0.0243671 0.00981468 0.0105857 0.0247898 0.00769269 0.0159428 0.0245481 
0.00395151 0.0155215 0.024757 0.0195778 0.0114288 0.0209027 0.0140958 0.0132982 0.0186097 
0.0123916 0.0122901 0.0210402 0.0186564 0.010612 0.022847 0.0161242 0.0102359 0.0232104 
0.0158579 0.0100973 0.0210718 0.0195487 0.0136065 0.0233662 0.0228318 0.015301 0.0230932 
0.02157 0.0128606 0.0224278 0.0215034 0.0100241 0.0232356 0.0147927 0.0164712 0.0225268 
0.00709034 0.023174 0.0174011 0.00308342 0.0221653 0.0189558 0.0053271 0.0187961 0.0176409 
0.0116013 0.0172152 0.0204605 0.00402683 0.0192139 0.0189552 0.00914235 0.0231966 0.0195302 
0.00181676 0.0198225 0.0207209 0.00617685 0.0181964 0.0206091 0.00220238 0.0231027 0.0240485 
0.00599076 0.0209071 0.0236292 0.00959355 0.0215053 0.0237743 0.0028263 0.0173276 0.0199472 
0.010985 0.0210976 0.0195676 0.00128124 0.017966 0.0216997 0.00663197 0.0234065 0.0249275 
0.0148928 0.0230402 0.0176566 0.0176988 0.0244545 0.018305 0.022581 0.0227675 0.0177677 
0.0197946 0.0205953 0.020617 0.0158171 0.0175381 0.0196215 0.0202119 0.0202129 0.0182577 
0.0125301 0.0201417 0.0212785 0.0215956 0.0170964 0.0224923 0.012039 0.0247143 0.023394 
0.0160737 0.0194211 0.0239173 0.0209217 0.0223702 0.0200256 0.0153318 0.0195792 0.0197729 
0.0216605 0.0199205 0.0241685 0.0149728 0.0219241 0.0210433 0.0141684 0.0243193 0.0239698 
0.0181586 0.0227732 0.0240623 0.0160837 0.0220941 0.0244026 0.0108832 0.0296624 0.0173171 
0.00407608 0.0332766 0.0186196 0.0092696 0.0316573 0.0197434 0.00230251 0.0322374 0.0198849 
0.00660921 0.0280517 0.019361 0.000900116 0.0257758 0.0209892 0.00382032 0.0253825 0.0193432 
0.0115072 0.0284662 0.0224891 0.0104991 0.0300776 0.0242504 0.00181088 0.0309641 0.023386 
0.00872914 0.0258989 0.0226435 0.0104244 0.0257288 0.0242354 0.00504555 0.0265219 0.0246816 
0.0118314 0.0318001 0.0249053 0.0182599 0.0312336 0.0202419 0.0220615 0.0306672 0.0197232 
0.0129352 0.0310327 0.0185777 0.0216686 0.0251729 0.0197038 0.019608 0.0252894 0.0223447 
0.0209179 0.0316767 0.0213747 0.0145974 0.0319076 0.0216768 0.0139818 0.0268154 0.0241328 
0.0205605 0.0274485 0.0205449 0.0167031 0.0308076 0.0232516 0.0146258 0.026391 0.0210132 
0.0157926 0.0299965 0.0203342 0.0110437 0.0389123 0.0209249 0.0106576 0.0386239 0.0180874 
0.00994417 0.0357215 0.0218556 0.00596676 0.0351776 0.0209956 0.00597108 0.0374407 0.0228226 
0.0114274 0.0341159 0.022394 0.00146146 0.0338178 0.0221421 0.00500286 0.0346023 0.0239005 
0.0082902 0.0416088 0.0232947 0.00225129 0.0360461 0.023483 0.00236978 0.0401757 0.0232973 
0.017175 0.0404566 0.0173578 0.0124144 0.0406266 0.0193389 0.014766 0.0363065 0.0171627 
0.0206613 0.0374887 0.0193609 0.0180476 0.0415061 0.0193617 0.0149588 0.0366776 0.0219999 
0.0201992 0.0342059 0.0197851 0.0212804 0.0364281 0.0224756 0.0183459 0.0372004 0.0241962 
0.00856018 0.0467983 0.0178345 0.00389644 0.0484977 0.0167784 0.00832877 0.0428933 0.0207973 
0.0033338 0.0474631 0.0233206 0.00624403 0.0481769 0.0224874 0.00413086 0.0443482 0.02074 
0.00173066 0.0425013 0.0198705 0.0112256 0.0445396 0.0224609 0.00437483 0.0491548 0.0226748 
0.00590834 0.0421978 0.0247505 0.0144577 0.0461063 0.0174448 0.0225443 0.0455754 0.0186823 
0.0204667 0.04823 0.018793 0.0167754 0.0449789 0.0215604 0.0173997 0.0467478 0.0226733 
0.014592 0.0446184 0.0208684 0.0209186 0.0449649 0.0227739 0.0228257 0.0491904 0.0227121 
0.0168165 0.0494588 0.0232396 0.0156025 0.0479867 0.021448 0.00971997 0.0546023 0.0205617 
0.0118231 0.0568087 0.0213229 0.0048504 0.0518319 0.0225287 0.0068991 0.055819 0.0213682 
0.00497465 0.0529602 0.020449 0.00265563 0.0538131 0.0243178 0.00121332 0.0507394 0.0231412 
0.00821754 0.0506709 0.0201828 0.00126625 0.0556511 0.0208784 0.00946609 0.0563561 0.0204939 
0.0159258 0.0525458 0.0180174 0.0130256 0.0550133 0.0167016 0.0200257 0.0579382 0.0187433 
0.0224189 0.0560622 0.0205255 0.0180764 0.0564767 0.0198468 0.0205196 0.0542458 0.0222376 
0.0184619 0.0542899 0.0188342 0.0152161 0.0549241 0.0234562 0.0135239 0.0501626 0.0223556 
0.0188146 0.0512296 0.0238275 0.0206409 0.0503187 0.0224173 0.0172939 0.0578024 0.0237634 
0.00924167 0.0646967 0.0185042 0.00628006 0.0655537 0.0206964 0.00673441 0.0627306 0.0208029 
0.00353967 0.0599039 0.0204496 0.00390816 0.0637994 0.0193946 0.00896598 0.0625253 0.0201942 
0.011525 0.066611 0.0216689 0.00241169 0.0662939 0.0204475 0.00311129 0.0607478 0.0240989 
0.00558906 0.0637481 0.0224743 0.0080749 0.0587799 0.0239074 0.0143938 0.0645765 0.0199815 
0.0125131 0.0622152 0.0169537 0.0207463 0.0657184 0.0210914 0.0197185 0.0596318 0.0179314 
0.0140253 0.0609346 0.0184517 0.0179495 0.0657639 0.0212033 0.0150993 0.0665221 0.0240819 
0.0143438 0.058396 0.0215221 0.0166142 0.0612334 0.0197909 0.0146122 0.0605922 0.022395 
0.0191944 0.0663406 0.0234368 0.0225702 0.0609588 0.0238665 0.0217095 0.0640617 0.0238403 
0.0216479 0.061216 0.0225024 0.0145403 0.0586359 0.0240972 0.00461083 0.0693915 0.0190413 
0.0076424 0.06812 0.0194567 0.00938029 0.0704313 0.0214208 0.00152704 0.0671129 0.0231611 
0.00414249 0.0712295 0.0211145 0.00220594 0.0711356 0.023963 0.00421672 0.0675078 0.0218818 
0.00550481 0.0731226 0.0232316 0.00892374 0.0675234 0.0239425 0.0142797 0.0700204 0.0174128 
0.0198245 0.0720953 0.0184495 0.0154734 0.0675839 0.0192965 0.0123205 0.0686813 0.0171559 
0.0159692 0.0715505 0.0216964 0.022956 0.0682447 0.0238338 0.018161 0.07017 0.0195718 
0.0217023 0.0707441 0.0231188 0.0190203 0.070933 0.0230979 0.0206828 0.0724701 0.022027 
0.0135267 0.0711883 0.0242612 0.00693432 0.00361614 0.0263588 0.0045196 0.0029912 0.0254088 
0.00285892 0.00564683 0.0299487 0.00176935 0.00451734 0.0268574 0.00233337 0.00271905 0.0273889 
0.000905409 0.00375843 0.025612 0.0066945 0.0078913 0.0306114 0.00254613 0.00239847 0.0302458 
0.00501613 0.00799734 0.025105 0.00127525 0.0037768 0.0302335 0.00634028 0.00331278 0.0307856 
0.00184973 0.00760333 0.0321017 0.00495085 0.00292959 0.0324935 0.00894065 0.00470904 0.0279216 
0.0127951 0.00758703 0.0290061 0.0163115 0.00593209 0.0296815 0.0123749 0.00291593 0.0317679 
0.0212298 0.00151872 0.0285872 0.0131581 0.00783801 0.0261545 0.0203487 0.00374519 0.0274395 
0.0175142 0.00274671 0.0302002 0.0173614 0.00269626 0.0258164 0.0186242 0.00591206 0.0307391 
0.0157158 0.00486815 0.0313879 0.0129432 0.00282134 0.0270792 0.0206444 0.00748017 0.0275285 
0.018344 0.00767174 0.0327681 0.00338842 0.0139325 0.0274204 0.00794544 0.00913169 0.0259373 
0.00589969 0.0147538 0.0264022 0.01077 0.011809 0.0270148 0.00192649 0.0126412 0.0252427 
0.0041477 0.0103527 0.0303728 0.00641469 0.0115688 0.0307547 0.00902794 0.0140894 0.0293229 
0.00301672 0.00880006 0.0311498 0.00824673 0.00890476 0.0315959 0.00846248 0.0155761 0.032359 
0.0116224 0.0113964 0.0321077 0.00257374 0.0166485 0.0318683 0.00196373 0.0139166 0.0330573 
0.0222411 0.00967991 0.0251632 0.0213269 0.014099 0.0255588 0.0184416 0.0100892 0.0255294 
0.0191643 0.0122659 0.0273419 0.0155823 0.0117822 0.0269672 0.0152837 0.0143453 0.0281314 
0.0131499 0.0122006 0.0308185 0.0179112 0.014098 0.0251401 0.0124259 0.015666 0.0301109 
0.0151575 0.0150955 0.0261071 0.0221154 0.0155542 0.0304588 0.0138349 0.0145942 0.0328338 
0.0146826 0.0086597 0.0326761 0.00680941 0.016801 0.0275433 0.00410589 0.0240813 0.0260735 
0.00938785 0.0172223 0.0273488 0.00752008 0.0188469 0.0265226 0.00549383 0.0210196 0.0274256 
0.00803141 0.0249019 0.029629 0.00936081 0.0224072 0.0284081 0.00727309 0.02156 0.0311658 
0.00339838 0.0196595 0.0299253 0.00207245 0.0238132 0.0307654 0.00362166 0.0170225 0.0290313 
0.0102847 0.0187782 0.0312956 0.00335978 0.0183751 0.0319928 0.00332332 0.0221991 0.0323048 
0.0191124 0.0249034 0.0258822 0.0211682 0.0204928 0.0283993 0.0152654 0.0192084 0.0269102 
0.0178715 0.0199662 0.0256931 0.0191481 0.0170126 0.0294869 0.0228574 0.0194311 0.0264054 
[...]
POINT_DATA 894
FIELD FieldData 7
id 1 894 int
35 125 114 290 15 68 83 232 188 
225 74 58 22 3 196 106 7 55 
99 78 21 253 109 128 163 279 88 
40 284 86 240 171 224 69 260 367 
403 442 449 549 399 707 47 45 373 
197 332 5 412 509 568 572 599 140 
56 675 235 408 461 510 654 305 336 
781 827 281 582 635 87 353 400 414 
36 710 340 753 754 475 816 824 846 
98 310 355 227 394 110 500 4 583 
740 429 790 794 802 406 91 280 307 
344 105 443 155 354 638 689 749 761 
456 828 112 190 884 100 349 151 170 
111 261 479 721 556 371 823 254 93 
629 285 301 34 422 370 66 96 682 
691 31 777 780 283 450 226 626 350 
701 20 738 273 519 838 265 276 293 
338 46 296 698 127 95 32 343 407 
494 533 24 684 63 206 417 139 189 
491 565 238 604 627 242 57 795 228 
493 389 559 668 672 53 822 835 873 
94 121 135 244 487 560 564 679 706 
430 841 848 233 311 318 495 574 608 
661 694 579 17 490 210 322 323 325 
382 138 609 384 709 85 216 501 269 
820 82 136 51 287 586 621 611 29 
203 814 148 314 335 358 571 525 757 
184 457 839 64 271 304 405 434 446 
512 590 272 65 704 719 162 404 857 
425 521 529 531 553 643 185 660 246 
464 779 792 10 41 243 270 390 473 
507 315 657 298 345 420 52 637 164 
177 180 205 19 397 448 517 569 327 
681 75 720 230 179 54 209 42 366 
566 603 392 663 674 743 37 395 27 
84 249 77 380 388 436 601 478 711 
723 853 103 319 468 591 605 229 612 
726 767 829 833 854 859 876 176 186 
263 294 357 411 518 540 102 201 44 
92 204 739 199 771 214 856 33 23 
48 245 267 330 472 537 554 686 320 
766 104 634 324 690 80 181 268 211 
538 13 356 715 133 236 360 459 437 
6 630 664 695 713 716 737 339 241 
141 451 885 161 328 391 143 499 544 
580 594 615 645 702 115 255 150 306 
43 308 359 378 511 636 644 659 149 
561 122 778 807 212 386 418 252 588 
595 613 680 38 717 222 725 257 797 
809 852 891 79 387 401 427 508 514 
142 584 602 71 773 784 872 266 352 
375 28 174 470 585 152 683 759 834 
869 156 195 218 363 424 462 632 292 
728 748 158 207 14 640 134 708 215 
178 642 874 153 423 482 505 282 607 
617 620 692 9 796 843 59 118 173 
208 374 192 485 606 610 26 727 763 
670 840 73 187 379 477 524 545 12 
377 649 220 731 764 62 782 61 862 
557 89 60 237 277 278 221 146 653 
101 113 787 798 484 137 341 444 295 
542 213 669 733 818 837 372 447 2 
548 107 573 676 25 147 735 800 855 
129 175 342 398 438 458 489 546 633 
744 578 758 786 108 619 217 880 250 
116 145 528 144 650 678 696 419 760 
793 191 870 193 11 1 346 361 421 
124 783 132 262 286 729 844 248 465 
431 878 90 887 291 49 480 616 647 
409 805 830 845 30 198 381 117 577 
598 202 76 165 705 810 868 126 160 
234 72 520 302 365 688 504 736 120 
804 812 752 329 347 651 667 677 685 
813 819 881 861 166 259 167 410 452 
474 496 547 317 426 618 658 746 765 
247 251 275 303 313 119 396 481 536 
168 562 157 699 466 826 433 97 334 
231 39 183 614 655 656 662 666 368 
714 724 803 297 703 16 402 439 393 
539 8 687 745 416 775 18 836 882 
428 523 67 312 376 467 541 159 576 
131 50 769 788 847 883 492 497 628 
806 825 879 886 321 526 552 631 722 
768 864 219 256 535 742 774 123 274 
454 503 581 718 750 801 831 875 169 
299 435 575 671 755 756 762 789 867 
81 154 182 348 502 515 534 596 624 
648 652 712 200 432 488 498 592 623 
665 732 842 455 751 849 866 889 333 
362 369 469 530 673 734 223 309 316 
516 532 625 730 817 851 865 888 194 
288 326 331 364 476 513 772 808 172 
239 337 415 527 555 558 700 871 258 
289 460 506 646 791 815 821 832 850 
440 70 471 543 570 597 693 776 799 
860 351 383 445 483 522 563 587 741 
770 877 264 300 453 463 567 589 600 
622 639 858 130 441 486 550 551 641 
697 747 811 863 385 413 593 785 890 
892 893 894 
type 1 894 int
1 1 1 1 1 1 1 1 1 
1 1 1 1 1 1 1 1 1 
1 1 1 1 1 1 1 1 1 
1 1 1 1 1 1 1 1 1 
1 1 1 1 1 1 1 1 1 
1 1 1 1 1 1 1 1 1 
1 1 1 1 1 1 1 1 1 
1 1 1 1 1 1 1 1 1 
1 1 1 1 1 1 1 1 1 
1 1 1 1 1 1 1 1 1 
1 1 1 1 1 1 1 1 1 
1 1 1 1 1 1 1 1 1 
1 1 1 1 1 1 1 1 1 
1 1 1 1 1 1 1 1 1 
1 1 1 1 1 1 1 1 1 
1 1 1 1 1 1 1 1 1 
1 1 1 1 1 1 1 1 1 
1 1 1 1 1 1 1 1 1 
1 1 1 1 1 1 1 1 1 
1 1 1 1 1 1 1 1 1 
1 1 1 1 1 1 1 1 1 
1 1 1 1 1 1 1 1 1 
1 1 1 1 1 1 1 1 1 
1 1 1 1 1 1 1 1 1 
1 1 1 1 1 1 1 1 1 
1 1 1 1 1 1 1 1 1 
1 1 1 1 1 1 1 1 1 
1 1 1 1 1 1 1 1 1 
1 1 1 1 1 1 1 1 1 
1 1 1 1 1 1 1 1 1 
1 1 1 1 1 1 1 1 1 
1 1 1 1 1 1 1 1 1 
1 1 1 1 1 1 1 1 1 
1 1 1 1 1 1 1 1 1 
1 1 1 1 1 1 1 1 1 
1 1 1 1 1 1 1 1 1 
1 1 1 1 1 1 1 1 1 
1 1 1 1 1 1 1 1 1 
1 1 1 1 1 1 1 1 1 
1 1 1 1 1 1 1 1 1 
1 1 1 1 1 1 1 1 1 
1 1 1 1 1 1 1 1 1 
1 1 1 1 1 1 1 1 1 
1 1 1 1 1 1 1 1 1 
1 1 1 1 1 1 1 1 1 
1 1 1 1 1 1 1 1 1 
1 1 1 1 1 1 1 1 1 
1 1 1 1 1 1 1 1 1 
1 1 1 1 1 1 1 1 1 
1 1 1 1 1 1 1 1 1 
1 1 1 1 1 1 1 1 1 
1 1 1 1 1 1 1 1 1 
1 1 1 1 1 1 1 1 1 
1 1 1 1 1 1 1 1 1 
1 1 1 1 1 1 1 1 1 
1 1 1 1 1 1 1 1 1 
1 1 1 1 1 1 1 1 1 
1 1 1 1 1 1 1 1 1 
1 1 1 1 1 1 1 1 1 
1 1 1 1 1 1 1 1 1 
1 1 1 1 1 1 1 1 1 
1 1 1 1 1 1 1 1 1 
1 1 1 1 1 1 1 1 1 
1 1 1 1 1 1 1 1 1 
1 1 1 1 1 1 1 1 1 
1 1 1 1 1 1 1 1 1 
1 1 1 1 1 1 1 1 1 
1 1 1 1 1 1 1 1 1 
1 1 1 1 1 1 1 1 1 
1 1 1 1 1 1 1 1 1 
1 1 1 1 1 1 1 1 1 
1 1 1 1 1 1 1 1 1 
1 1 1 1 1 1 1 1 1 
1 1 1 1 1 1 1 1 1 
1 1 1 1 1 1 1 1 1 
1 1 1 1 1 1 1 1 1 
1 1 1 1 1 1 1 1 1 
1 1 1 1 1 1 1 1 1 
1 1 1 1 1 1 1 1 1 
1 1 1 1 1 1 1 1 1 
1 1 1 1 1 1 1 1 1 
1 1 1 1 1 1 1 1 1 
1 1 1 1 1 1 1 1 1 
1 1 1 1 1 1 1 1 1 
1 1 1 1 1 1 1 1 1 
1 1 1 1 1 1 1 1 1 
1 1 1 1 1 1 1 1 1 
1 1 1 1 1 1 1 1 1 
1 1 1 1 1 1 1 1 1 
1 1 1 1 1 1 1 1 1 
1 1 1 1 1 1 1 1 1 
1 1 1 1 1 1 1 1 1 
1 1 1 1 1 1 1 1 1 
1 1 1 1 1 1 1 1 1 
1 1 1 1 1 1 1 1 1 
1 1 1 1 1 1 1 1 1 
1 1 1 1 1 1 1 1 1 
1 1 1 1 1 1 1 1 1 
1 1 1 1 1 1 1 1 1 
1 1 1 
i 3 894 int
0 0 0 0 0 0 0 0 0 
0 0 0 0 0 0 0 0 0 
0 0 0 0 0 0 0 0 0 
0 0 0 0 0 0 0 0 0 
0 0 0 0 0 0 0 0 0 
0 0 0 0 0 0 0 0 0 
0 0 0 0 0 0 0 0 0 
0 0 0 0 0 0 0 0 0 
0 0 0 0 0 0 0 0 0 
0 0 0 0 0 0 0 0 0 
0 0 0 0 0 0 0 0 0 
0 0 0 0 0 0 0 0 0 
0 0 0 0 0 0 0 0 0 
0 0 0 0 0 0 0 0 0 
0 0 0 0 0 0 0 0 0 
0 0 0 0 0 0 0 0 0 
0 0 0 0 0 0 0 0 0 
0 0 0 0 0 0 0 0 0 
0 0 0 0 0 0 0 0 0 
0 0 0 0 0 0 0 0 0 
0 0 0 0 0 0 0 0 0 
0 0 0 0 0 0 0 0 0 
0 0 0 0 0 0 0 0 0 
0 0 0 0 0 0 0 0 0 
0 0 0 0 0 0 0 0 0 
0 0 0 0 0 0 0 0 0 
0 0 0 0 0 0 0 0 0 
0 0 0 0 0 0 0 0 0 
0 0 0 0 0 0 0 0 0 
0 0 0 0 0 0 0 0 0 
0 0 0 0 0 0 0 0 0 
0 0 0 0 0 0 0 0 0 
0 0 0 0 0 0 0 0 0 
0 0 0 0 0 0 0 0 0 
0 0 0 0 0 0 0 0 0 
0 0 0 0 0 0 0 0 0 
0 0 0 0 0 0 0 0 0 
0 0 0 0 0 0 0 0 0 
0 0 0 0 0 0 0 0 0 
0 0 0 0 0 0 0 0 0 
0 0 0 0 0 0 0 0 0 
0 0 0 0 0 0 0 0 0 
0 0 0 0 0 0 0 0 0 
0 0 0 0 0 0 0 0 0 
0 0 0 0 0 0 0 0 0 
0 0 0 0 0 0 0 0 0 
0 0 0 0 0 0 0 0 0 
0 0 0 0 0 0 0 0 0 
0 0 0 0 0 0 0 0 0 
0 0 0 0 0 0 0 0 0 
0 0 0 0 0 0 0 0 0 
0 0 0 0 0 0 0 0 0 
0 0 0 0 0 0 0 0 0 
0 0 0 0 0 0 0 0 0 
0 0 0 0 0 0 0 0 0 
0 0 0 0 0 0 0 0 0 
0 0 0 0 0 0 0 0 0 
0 0 0 0 0 0 0 0 0 
0 0 0 0 0 0 0 0 0 
0 0 0 0 0 0 0 0 0 
0 0 0 0 0 0 0 0 0 
0 0 0 0 0 0 0 0 0 
0 0 0 0 0 0 0 0 0 
0 0 0 0 0 0 0 0 0 
0 0 0 0 0 0 0 0 0 
0 0 0 0 0 0 0 0 0 
0 0 0 0 0 0 0 0 0 
0 0 0 0 0 0 0 0 0 
0 0 0 0 0 0 0 0 0 
0 0 0 0 0 0 0 0 0 
0 0 0 0 0 0 0 0 0 
0 0 0 0 0 0 0 0 0 
0 0 0 0 0 0 0 0 0 
0 0 0 0 0 0 0 0 0 
0 0 0 0 0 0 0 0 0 
0 0 0 0 0 0 0 0 0 
0 0 0 0 0 0 0 0 0 
0 0 0 0 0 0 0 0 0 
0 0 0 0 0 0 0 0 0 
0 0 0 0 0 0 0 0 0 
0 0 0 0 0 0 0 0 0 
0 0 0 0 0 0 0 0 0 
0 0 0 0 0 0 0 0 0 
0 0 0 0 0 0 0 0 0 
0 0 0 0 0 0 0 0 0 
0 0 0 0 0 0 0 0 0 
0 0 0 0 0 0 0 0 0 
0 0 0 0 0 0 0 0 0 
0 0 0 0 0 0 0 0 0 
0 0 0 0 0 0 0 0 0 
0 0 0 0 0 0 0 0 0 
0 0 0 0 0 0 0 0 0 
0 0 0 0 0 0 0 0 0 
0 0 0 0 0 0 0 0 0 
0 0 0 0 0 0 0 0 0 
0 0 0 0 0 0 0 0 0 
0 0 0 0 0 0 0 0 0 
0 0 0 0 0 0 0 0 0 
0 0 0 0 0 0 0 0 0 
0 0 0 0 0 0 0 0 0 
0 0 0 0 0 0 0 0 0 
0 0 0 0 0 0 0 0 0 
0 0 0 0 0 0 0 0 0 
0 0 0 0 0 0 0 0 0 
0 0 0 0 0 0 0 0 0 
0 0 0 0 0 0 0 0 0 
0 0 0 0 0 0 0 0 0 
0 0 0 0 0 0 0 0 0 
0 0 0 0 0 0 0 0 0 
0 0 0 0 0 0 0 0 0 
0 0 0 0 0 0 0 0 0 
0 0 0 0 0 0 0 0 0 
0 0 0 0 0 0 0 0 0 
0 0 0 0 0 0 0 0 0 
0 0 0 0 0 0 0 0 0 
0 0 0 0 0 0 0 0 0 
0 0 0 0 0 0 0 0 0 
0 0 0 0 0 0 0 0 0 
0 0 0 0 0 0 0 0 0 
0 0 0 0 0 0 0 0 0 
0 0 0 0 0 0 0 0 0 
0 0 0 0 0 0 0 0 0 
0 0 0 0 0 0 0 0 0 
0 0 0 0 0 0 0 0 0 
0 0 0 0 0 0 0 0 0 
0 0 0 0 0 0 0 0 0 
0 0 0 0 0 0 0 0 0 
0 0 0 0 0 0 0 0 0 
0 0 0 0 0 0 0 0 0 
0 0 0 0 0 0 0 0 0 
0 0 0 0 0 0 0 0 0 
0 0 0 0 0 0 0 0 0 
0 0 0 0 0 0 0 0 0 
0 0 0 0 0 0 0 0 0 
0 0 0 0 0 0 0 0 0 
0 0 0 0 0 0 0 0 0 
0 0 0 0 0 0 0 0 0 
0 0 0 0 0 0 0 0 0 
0 0 0 0 0 0 0 0 0 
0 0 0 0 0 0 0 0 0 
0 0 0 0 0 0 0 0 0 
0 0 0 0 0 0 0 0 0 
0 0 0 0 0 0 0 0 0 
0 0 0 0 0 0 0 0 0 
0 0 0 0 0 0 0 0 0 
0 0 0 0 0 0 0 0 0 
0 0 0 0 0 0 0 0 0 
0 0 0 0 0 0 0 0 0 
0 0 0 0 0 0 0 0 0 
0 0 0 0 0 0 0 0 0 
0 0 0 0 0 0 0 0 0 
0 0 0 0 0 0 0 0 0 
0 0 0 0 0 0 0 0 0 
0 0 0 0 0 0 0 0 0 
0 0 0 0 0 0 0 0 0 
0 0 0 0 0 0 0 0 0 
0 0 0 0 0 0 0 0 0 
0 0 0 0 0 0 0 0 0 
0 0 0 0 0 0 0 0 0 
0 0 0 0 0 0 0 0 0 
0 0 0 0 0 0 0 0 0 
0 0 0 0 0 0 0 0 0 
0 0 0 0 0 0 0 0 0 
0 0 0 0 0 0 0 0 0 
0 0 0 0 0 0 0 0 0 
0 0 0 0 0 0 0 0 0 
0 0 0 0 0 0 0 0 0 
0 0 0 0 0 0 0 0 0 
0 0 0 0 0 0 0 0 0 
0 0 0 0 0 0 0 0 0 
0 0 0 0 0 0 0 0 0 
0 0 0 0 0 0 0 0 0 
0 0 0 0 0 0 0 0 0 
0 0 0 0 0 0 0 0 0 
0 0 0 0 0 0 0 0 0 
0 0 0 0 0 0 0 0 0 
0 0 0 0 0 0 0 0 0 
0 0 0 0 0 0 0 0 0 
0 0 0 0 0 0 0 0 0 
0 0 0 0 0 0 0 0 0 
0 0 0 0 0 0 0 0 0 
0 0 0 0 0 0 0 0 0 
0 0 0 0 0 0 0 0 0 
0 0 0 0 0 0 0 0 0 
0 0 0 0 0 0 0 0 0 
0 0 0 0 0 0 0 0 0 
0 0 0 0 0 0 0 0 0 
0 0 0 0 0 0 0 0 0 
0 0 0 0 0 0 0 0 0 
0 0 0 0 0 0 0 0 0 
0 0 0 0 0 0 0 0 0 
0 0 0 0 0 0 0 0 0 
0 0 0 0 0 0 0 0 0 
0 0 0 0 0 0 0 0 0 
0 0 0 0 0 0 0 0 0 
0 0 0 0 0 0 0 0 0 
0 0 0 0 0 0 0 0 0 
0 0 0 0 0 0 0 0 0 
0 0 0 0 0 0 0 0 0 
0 0 0 0 0 0 0 0 0 
0 0 0 0 0 0 0 0 0 
0 0 0 0 0 0 0 0 0 
0 0 0 0 0 0 0 0 0 
0 0 0 0 0 0 0 0 0 
0 0 0 0 0 0 0 0 0 
0 0 0 0 0 0 0 0 0 
0 0 0 0 0 0 0 0 0 
0 0 0 0 0 0 0 0 0 
0 0 0 0 0 0 0 0 0 
0 0 0 0 0 0 0 0 0 
0 0 0 0 0 0 0 0 0 
0 0 0 0 0 0 0 0 0 
0 0 0 0 0 0 0 0 0 
0 0 0 0 0 0 0 0 0 
0 0 0 0 0 0 0 0 0 
0 0 0 0 0 0 0 0 0 
0 0 0 0 0 0 0 0 0 
0 0 0 0 0 0 0 0 0 
0 0 0 0 0 0 0 0 0 
0 0 0 0 0 0 0 0 0 
0 0 0 0 0 0 0 0 0 
0 0 0 0 0 0 0 0 0 
0 0 0 0 0 0 0 0 0 
0 0 0 0 0 0 0 0 0 
0 0 0 0 0 0 0 0 0 
0 0 0 0 0 0 0 0 0 
0 0 0 0 0 0 0 0 0 
0 0 0 0 0 0 0 0 0 
0 0 0 0 0 0 0 0 0 
0 0 0 0 0 0 0 0 0 
0 0 0 0 0 0 0 0 0 
0 0 0 0 0 0 0 0 0 
0 0 0 0 0 0 0 0 0 
0 0 0 0 0 0 0 0 0 
0 0 0 0 0 0 0 0 0 
0 0 0 0 0 0 0 0 0 
0 0 0 0 0 0 0 0 0 
0 0 0 0 0 0 0 0 0 
0 0 0 0 0 0 0 0 0 
0 0 0 0 0 0 0 0 0 
0 0 0 0 0 0 0 0 0 
0 0 0 0 0 0 0 0 0 
0 0 0 0 0 0 0 0 0 
0 0 0 0 0 0 0 0 0 
0 0 0 0 0 0 0 0 0 
0 0 0 0 0 0 0 0 0 
0 0 0 0 0 0 0 0 0 
0 0 0 0 0 0 0 0 0 
0 0 0 0 0 0 0 0 0 
0 0 0 0 0 0 0 0 0 
0 0 0 0 0 0 0 0 0 
0 0 0 0 0 0 0 0 0 
0 0 0 0 0 0 0 0 0 
0 0 0 0 0 0 0 0 0 
0 0 0 0 0 0 0 0 0 
0 0 0 0 0 0 0 0 0 
0 0 0 0 0 0 0 0 0 
0 0 0 0 0 0 0 0 0 
0 0 0 0 0 0 0 0 0 
0 0 0 0 0 0 0 0 0 
0 0 0 0 0 0 0 0 0 
0 0 0 0 0 0 0 0 0 
0 0 0 0 0 0 0 0 0 
0 0 0 0 0 0 0 0 0 
0 0 0 0 0 0 0 0 0 
0 0 0 0 0 0 0 0 0 
0 0 0 0 0 0 0 0 0 
0 0 0 0 0 0 0 0 0 
0 0 0 0 0 0 0 0 0 
0 0 0 0 0 0 0 0 0 
0 0 0 0 0 0 0 0 0 
0 0 0 0 0 0 0 0 0 
0 0 0 0 0 0 0 0 0 
0 0 0 0 0 0 0 0 0 
0 0 0 0 0 0 0 0 0 
0 0 0 0 0 0 0 0 0 
0 0 0 0 0 0 0 0 0 
0 0 0 0 0 0 0 0 0 
0 0 0 0 0 0 0 0 0 
0 0 0 0 0 0 0 0 0 
0 0 0 0 0 0 0 0 0 
0 0 0 0 0 0 0 0 0 
0 0 0 0 0 0 0 0 0 
0 0 0 0 0 0 0 0 0 
0 0 0 0 0 0 0 0 0 
0 0 0 0 0 0 0 0 0 
0 0 0 0 0 0 0 0 0 
0 0 0 0 0 0 0 0 0 
0 0 0 0 0 0 0 0 0 
0 0 0 0 0 0 0 0 0 
0 0 0 0 0 0 0 0 0 
0 0 0 0 0 0 0 0 0 
0 0 0 0 0 0 0 0 0 
0 0 0 0 0 0 0 0 0 
0 0 0 0 0 0 0 0 0 
0 0 0 0 0 0 0 0 0 
0 0 0 0 0 0 0 0 0 
0 0 0 0 0 0 0 0 0 

v 3 894 double
0 0 -3.91833 0 0 -3.53918 0 0 -3.587 
0 0 -2.80514 0 0 -3.9588 0 0 -3.768 
0 0 -3.70766 0 0 -3.03789 0 0 -3.24561 
0 0 -3.06756 0 0 -3.73562 0 0 -3.81754 
0 0 -3.94899 0 0 -4.02379 0 0 -3.20122 
0 0 -3.62771 0 0 -4.00589 0 0 -3.82588 
0 0 -3.64145 0 0 -3.71968 0 0 -3.94973 
0 0 -2.9778 0 0 -3.62036 0 0 -3.52814 
0 0 -3.36309 0 0 -2.84291 0 0 -3.68044 
0 0 -3.87272 0 0 -2.82795 0 0 -3.69099 
0 0 -3.01753 0 0 -3.33611 0 0 -3.0683 
0 0 -3.76652 0 0 -2.93071 -0.00273215 0.00426215 -2.45962 
0 0 -2.25529 0.063652 -0.0356487 -2.1557 0 0 -2.06547 
0 0 -1.63408 0 0 -2.27737 -0.247426 -0.309737 -1.12628 
0 0 -3.85089 0 0 -3.8531 0 0 -2.42771 
0.190212 0.0344681 -3.45987 0.039888 -0.0622251 -2.52022 -0.122629 0.0866975 -3.64513 
0 0 -2.23126 0 0 -1.76479 0 0 -1.51268 
0 0 -1.49772 -0.426167 0.0812885 -1.91858 0 0 -3.4759 
0 0 -3.82269 0 0 -1.04695 0 0 -3.03077 
-0.336403 0.383703 -2.67501 0 0 -1.99361 0 0 -1.75964 
-1.0649 -0.398517 -2.51536 0 0 -2.73991 -0.169904 0.188055 -2.4992 
0.155197 -0.422516 -0.984592 0 0 -0.409788 0.121254 0.0161244 -2.94493 
0.0987647 -0.251333 -2.88469 0 0 -1.24658 -0.113143 0.133535 -3.38489 
0 0 -2.52286 0 0 -2.27124 0 0 -2.22734 
0.229596 -0.0241505 -3.62053 0.0445256 0.106641 -2.80138 0.067071 0.0349264 -1.76864 
-0.0984172 -0.0512496 -1.92728 -0.799317 -0.188055 -2.76995 0.403467 0.314011 -3.00631 
0.130644 -0.431196 -2.25977 -0.41708 0.194615 -2.42284 0 0 -0.311933 
0 0 -3.64807 0 0 -2.70435 0.111611 -0.0279499 -2.6996 
-0.012008 -0.0419599 -3.07998 -0.466317 0.257706 -3.16794 0 0 -3.61643 
0 0 -1.7979 -0.152559 0.798005 -2.76637 0 0 -1.43714 
0 0 -0.776682 0 0 -2.14346 0 0 -0.585632 
-0.776062 0.503595 -2.46868 0 0 -0.527753 0 0 -2.24892 
0 0 -3.6645 0 0 -2.84267 0 0 -2.72544 
-0.0377217 0.0345699 -2.26265 0.121526 -0.511079 -3.2014 0.0257186 -0.0235697 -2.29046 
0.18535 -0.0473065 -2.94677 0 0 -2.51158 -0.610874 0.113318 -1.71084 
0 0 -1.0001 0 0 -0.756081 -0.178288 0.749788 -1.31993 
-0.0247212 0.00454176 -2.1738 0 0 -0.406355 0.416308 -0.0772258 -3.2696 
0 0 -3.22967 0 0 -0.065212 0 0 -3.63973 
0 0 -2.54199 0 0 -3.41753 0 0 -3.34151 
0 0 -3.61521 0 0 -2.92851 0 0 -1.89208 
0 0 -0.874292 0 0 -1.58331 -0.339372 -0.0877807 -3.31384 
-0.359903 0.0361096 -1.01507 0.77458 -0.0777147 -1.73223 0 0 -3.65445 
0 0 -1.2635 -0.0101659 -0.1634 -2.99792 0.0453228 -0.0283241 -2.83619 
0 0 -3.91858 0 0 -2.17559 0 0 -2.44316 
0.108364 0.228124 -2.85059 0 0 -3.64856 0 0 -1.03003 
0 0 -0.991521 -0.322916 -0.153282 -3.03971 0 0 -0.635173 
-0.554869 -0.293933 -0.857933 0.0612203 0.0454207 -2.0026 -0.0114826 -0.0125648 -2.08173 
-0.0545931 0.0590972 -3.04673 0 0 -1.27111 0 0 -2.54077 
0.0801077 -0.0867168 -0.979266 0 0 -3.95046 0 0 -0.778644 
0 0 -2.86548 -0.0938357 -0.179619 -2.60329 0 0 -0.352154 
0 0 -2.89589 0.217437 0.247939 -2.5847 0 0 -2.79264 
0.0272146 0.156887 -2.58729 0 0 -3.85236 0 0 -2.78847 
0.306706 0.20531 -1.51328 0 0 -3.52888 0 0 -3.6493 
0 0 -3.92201 0 0 -2.56627 0 0 -2.24769 
0 0 -1.81973 0 0 -1.68754 0.499294 0.384213 -3.55598 
-0.34043 -0.261965 -1.28298 -0.257967 -0.00740146 -3.35193 0 0 -3.14702 
0 0 -2.21679 0 0 -3.47664 0 0 -3.24537 
0 0 -1.83077 0.484851 -0.0963928 -1.99137 0.149843 0.328059 -2.29719 
0.541028 -0.0358604 -2.73319 0.0926181 0.0980514 -1.48599 0 0 -3.0114 
0.203123 0.246317 -3.1776 -0.641175 -0.777521 -2.58987 -0.246035 -0.259592 -2.86347 
0.231837 0.0753372 -1.75286 0 0 -2.32666 -0.133327 -0.0274886 -1.49905 
0 0 -1.05676 0 0 -1.04891 0 0 -3.84084 
0 0 -0.438973 0 0 -0.364417 -0.00033587 0.0219317 -1.42758 
0 0 -3.64979 0 0 -3.57229 0.0273997 -0.151065 -3.25936 
0 0 -2.98884 0 0 -1.84695 0 0 -1.55167 
0 0 -1.53132 0 0 -1.03419 0 0 -0.924813 
0 0 -2.13782 0 0 -0.344552 0 0 -0.289861 
0 0 -3.03519 0 0 -2.70189 -0.0796145 -0.117422 -3.01903 
0 0 -1.81752 0 0 -1.48079 0.686954 -0.104307 -2.1478 
0 0 -1.09085 0 0 -0.986616 0 0 -1.45701 
-0.239793 0.165921 -3.24695 0 0 -1.83297 0 0 -3.13403 
0 0 -2.67394 0.00615759 0.014853 -2.76149 -0.0401972 0.221623 -3.0067 
0 0 -2.37988 0 0 -3.48179 0 0 -1.35032 
-0.039724 -0.0484978 -3.57402 0 0 -0.91721 0 0 -3.69516 
-0.132199 0.0543887 -2.82321 0.17546 0.18249 -2.29768 0.0286358 -0.0491778 -2.75691 
0 0 -0.442652 0.00858598 0.0104823 -3.44625 0 0 -3.49013 
0 0 -3.84795 0 0 -2.82011 -0.189328 -0.0277932 -1.48514 
0 0 -1.28901 -0.0634578 0.0180459 -1.52704 0.27769 0.0407646 -3.83484 
0 0 -3.16346 -0.0788241 0.266995 -0.730796 0 0 -3.42759 
0 0 -2.68988 0 0 -2.59913 0 0 -2.49834 
-0.0438626 -0.0765574 -2.11227 0 0 -1.70912 0.544456 -0.386311 -1.6385 
0 0 -3.26842 0.168706 0.253945 -3.27329 0 0 -0.350928 
-0.606728 -0.119901 -2.47642 0 0 -2.87112 0 0 -2.74947 
0 0 -2.25137 0 0 -2.13316 0 0 -2.08117 
0 0 -1.74836 0 0 -1.41065 0 0 -2.87087 
-0.0409797 -0.302151 -2.77841 0 0 -0.925794 0 0 -0.880423 
-0.268847 -0.296442 -2.98378 0 0 -2.25211 0 0 -0.23983 
-0.00740068 -0.00511694 -2.08597 -0.498929 -0.00122107 -2.0712 0 0 -1.69465 
0 0 -1.69122 0.0502472 0.0347416 -2.13247 0 0 -1.199 
0 0 -3.25224 0 0 -1.10703 0.0807472 -0.0466482 -3.04962 
-0.312652 0.0796898 -3.40551 0 0 -0.627325 0 0 -0.581218 
-0.0489942 0.31776 -3.2151 0.319951 0.282615 -2.61024 0 0 -3.00306 
-0.0542656 -0.0547664 -2.79622 0 0 -2.32593 -0.148731 -0.131375 -2.49732 
0.224807 0.300672 -2.10311 0 0 -2.68914 0 0 -1.11464 
-0.0413814 -0.0984192 -2.69488 0 0 -2.56259 0 0 -2.19079 
-0.532505 -0.280361 -3.12419 -0.0589295 -0.174941 -1.27164 0 0 -3.36186 
0.193926 -0.0904886 -2.35894 0.150599 0.301857 -2.3352 -0.135486 -0.333994 -2.74317 
-0.227448 -0.0201109 -3.01038 0 0 -2.28423 0.029538 -0.175715 -1.18209 
0.3629 0.191065 -2.21597 -0.739863 0.0271059 -2.18822 0.186022 -0.301706 -3.04051 
-0.00638269 0.0379692 -1.22555 0 0 -3.73072 -0.823312 0.139244 -2.30702 
0 0 -3.045 0.071362 0.174288 -3.10228 0 0 -3.83887 
0 0 -3.13452 0 0 -3.85923 0 0 -2.4537 
0 0 -1.52592 0 0 -1.37239 0 0 -2.31636 
0.0228489 0.145044 -1.31286 0 0 -1.04768 0.00695657 -0.0807495 -0.809251 
-0.287462 -0.000343567 -3.55484 0.375173 -0.338185 -1.51471 0 0 -3.93207 
-0.201277 -0.0446964 -3.56337 -0.0409972 0.02804 -2.85541 0 0 -3.7241 
0 0 -2.40392 0 0 -2.33868 0.575732 -0.309857 -2.40057 
0 0 -1.37656 0.109525 0.140518 -1.95789 0 0 -0.911815 
0 0 -0.865463 0 0 -0.26411 0.0733044 0.0189606 -3.44195 
-0.395826 0.514762 -0.712094 0 0 -1.96222 0 0 -1.40943 
-0.332499 -0.222076 -1.85002 0.332499 0.222076 -2.55904 0 0 -1.32629 
0 0 -0.849031 0 0 -0.671715 -0.0739651 -0.0511723 -0.431179 
0.0632046 -0.0354897 -0.564702 -0.00109005 0.0695394 -0.333425 0 0 -0.224134 
0 0 -0.129222 0 0 -3.29025 0 0 -3.24905 
0.0935682 0.0207782 -2.97724 0 0 -2.79141 0 0 -2.50349 
0.271874 0.0111148 -1.83743 -0.201 0.200289 -2.36215 -0.510305 0.149276 -2.00983 
-1.39674 -0.558375 -2.26113 0.331268 -0.0286677 -2.77702 0 0 -3.85432 
0.237109 -0.0693603 -3.49921 0 0 -3.15585 -0.398937 -0.0163093 -1.36408 
-0.0605007 -0.0797059 -3.06814 0 0 -0.650624 0 0 -3.11833 
0.0651855 0.0260591 -0.311999 0 0 -3.92103 0 0 -3.94261 
0.137625 0.263439 -2.55082 0 0 -2.98712 0 0 -2.88093 
0 0 -2.62832 0 0 -1.91685 0 0 -1.67209 
0 0 -1.58748 0 0 -1.00575 0 0 -2.67688 
0 0 -0.674413 0 0 -3.63041 -0.301992 0.19161 -1.46613 
0.140402 -0.089083 -2.56573 -0.135651 0.497722 -2.76371 0.482257 -0.390022 -3.40001 
0 0 -3.27799 0 0 -2.87995 0 0 -3.12887 
0 0 -1.66302 0 0 -3.97769 0 0 -2.50471 
0 0 -0.894157 0 0 -3.5149 0 0 -3.02881 
0 0 -2.48951 0.336137 -0.126407 -2.52742 0 0 -2.1182 
0 0 -4.01643 0 0 -1.26105 0 0 -1.07687 
0.0671942 0.020188 -1.00529 0 0 -0.902986 -0.0276665 -0.204831 -1.74935 
0 0 -0.781342 0 0 -2.58883 -0.336116 0.0930269 -2.89379 
0 0 -3.47247 0 0 -2.051 0 0 -0.0627595 
-0.561487 0.339939 -1.87849 0 0 -2.65284 0.322862 -0.0908924 -2.87074 
0.214679 -0.0921817 -2.12993 -0.0680389 0.0292154 -2.2155 0 0 -1.6434 
0 0 -1.44793 -0.041513 0.0130125 -1.64365 0 0 -1.31059 
0 0 -1.1963 0 0 -0.928247 -0.220131 0.0619713 -3.21447 
0 0 -2.96505 0 0 -3.42219 0 0 -2.7301 
0 0 -3.85555 0 0 -2.71612 0 0 -2.49564 
0 0 -2.4152 0.0457892 0.0380392 -1.63929 0 0 -1.23775 
0 0 -1.19655 0 0 -1.10851 0 0 -3.42514 
0 0 -1.53794 0 0 -3.56836 -0.310797 -0.258194 -1.42722 
0 0 -0.504209 0 0 -3.12618 0 0 -2.35021 
-0.257279 -0.287607 -1.74671 0 0 -2.98001 0 0 -1.41899 
0 0 -1.40035 0 0 -1.32531 0 0 -1.03272 
0 0 -3.91073 0 0 -0.884837 0 0 -3.08179 
0 0 -0.850012 0 0 -2.94911 0 0 -0.556693 
0 0 -0.497342 0 0 -0.267298 0 0 -0.0325937 
0 0 -3.71944 0.169544 -0.574282 -1.75499 0 0 -2.26903 
0 0 -2.14837 0 0 -1.76504 0.0567675 -0.019494 -1.91165 
0.338616 0.360027 -2.934 0 0 -1.43371 -0.338616 -0.360027 -1.89763 
-0.565513 0.194198 -2.04867 -0.161659 -0.226718 -2.02488 -0.202477 -0.261673 -1.66454 
0 0 -0.140749 -0.0308942 -0.00148073 -2.81846 0 0 -2.52507 
0.0419356 -0.214638 -2.48787 -0.0541781 0.339645 -3.43815 0.161659 0.226718 -1.91894 