# vtk DataFile Version 4.0
Generated by LIGGGHTS
ASCII
DATASET POLYDATA
POINTS 538 float
0.0101697 0.00456174 0.0116574 0.00412201 0.00438184 0.0108755 0.00639372 0.00213943 0.0121393 
0.00310462 0.00662403 0.0116573 0.000677973 0.00743688 0.0106779 0.00686951 0.00652313 0.0121393 
0.0021644 0.00344748 0.0106779 0.00421897 0.000770639 0.0107705 0.000770486 0.00599436 0.0107704 
0.00219906 0.00145879 0.0114587 0.00566209 0.00443633 0.010678 0.00389506 0.00275434 0.0107705 
0.00794043 0.00418922 0.0107704 0.000770469 0.0030257 0.0107704 0.00077047 0.000770481 0.0130256 
0.00118439 0.00451003 0.0107704 0.00262397 0.000994467 0.0138299 0.000875492 0.00312998 0.0124097 
0.00269411 0.00460683 0.0105965 0.0025124 0.00409266 0.0121811 0.00440075 0.00457336 0.0130302 
0.00830477 0.00414967 0.0133211 0.000994425 0.00653303 0.0132609 0.00348053 0.00266347 0.013169 
0.00986252 0.00146695 0.0114587 0.000770487 0.00519451 0.0120875 0.010234 0.0075767 0.0124908 
0.00230662 0.00525363 0.0136325 0.00879694 0.000875472 0.0134496 0.0114741 0.00099448 0.0132471 
0.000770496 0.0044237 0.0134219 0.00958099 0.00689796 0.0108754 0.0114019 0.00683624 0.0137497 
0.012023 0.00575464 0.0126757 0.0120115 0.00589308 0.0107705 0.0125937 0.00128396 0.0112839 
0.0152005 0.00617657 0.01113 0.022456 0.00366441 0.0114587 0.0165575 0.00399652 0.0114588 
0.0192473 0.00450402 0.0112839 0.0228699 0.00113005 0.01113 0.0145155 0.000770446 0.0107704 
0.0160279 0.00194335 0.0107704 0.0208859 0.00087549 0.0108754 0.0215582 0.00554015 0.010678 
0.0167267 0.000677963 0.010678 0.0186071 0.00165746 0.0116574 0.0228699 0.00782278 0.01113 
0.016679 0.00766564 0.0123234 0.0172532 0.00617001 0.0108754 0.0226735 0.00628471 0.0127744 
0.0134485 0.00407355 0.0116574 0.0198482 0.00717449 0.0114587 0.0230055 0.0019225 0.0130965 
0.0231245 0.00582357 0.0108754 0.0230055 0.00441572 0.0137285 0.0210011 0.00530728 0.0122545 
0.0150541 0.00163744 0.0127523 0.0214572 0.000875481 0.0125306 0.0129992 0.00809136 0.011883 
0.0200638 0.000994482 0.0137719 0.00899922 0.00906349 0.0112839 0.00466459 0.012166 0.0112839 
0.00793788 0.0142585 0.0121393 0.00633225 0.0088713 0.0106779 0.00425687 0.015055 0.0116574 
0.0111439 0.0108384 0.0114587 0.00442599 0.00943926 0.0114587 0.00113001 0.0118112 0.01113 
0.00146206 0.00926483 0.0114588 0.00831443 0.0118538 0.010678 0.000770475 0.0136424 0.0107704 
0.00192839 0.0156737 0.0108754 0.00966825 0.0123611 0.0107704 0.00113037 0.0146019 0.012371 
0.00687801 0.0106558 0.0112839 0.0102348 0.00936917 0.0130284 0.000677984 0.0128588 0.0125325 
0.00342888 0.0110395 0.0130283 0.0088263 0.0110436 0.0129111 0.0114296 0.0132304 0.0109944 
0.00263989 0.0129103 0.0124028 0.00609575 0.0118864 0.0130346 0.00314357 0.0172523 0.0131874 
0.0107342 0.0079354 0.010678 0.00452248 0.013054 0.0133773 0.0107332 0.0150973 0.0109944 
0.000524999 0.0157149 0.010525 0.000770478 0.0161699 0.013383 0.0113564 0.0141804 0.0126035 
0.0180006 0.00950649 0.0128049 0.0155217 0.00917008 0.0109944 0.0161611 0.00984232 0.0127538 
0.0173425 0.0154078 0.0112839 0.0142 0.0114145 0.0116574 0.0205717 0.0107019 0.0109944 
0.015343 0.0163993 0.0108754 0.0181828 0.0091291 0.01113 0.0220522 0.0126022 0.0114587 
0.0189295 0.0107124 0.0106779 0.0212365 0.00895819 0.0108754 0.0169046 0.0109931 0.01113 
0.0228697 0.010118 0.01113 0.0204471 0.015589 0.011883 0.0159713 0.0144449 0.0126461 
0.0188243 0.0126986 0.0114587 0.0163007 0.0131739 0.01113 0.0230044 0.013945 0.0132778 
0.0125102 0.010449 0.0134588 0.0142865 0.0157974 0.0137193 0.0203026 0.0110993 0.0134002 
0.023124 0.0145926 0.0108755 0.0149077 0.0132138 0.0132936 0.0232293 0.0154059 0.0123121 
0.0144668 0.00973925 0.0135384 0.0136515 0.0146837 0.0116574 0.0230056 0.0165608 0.0109944 
0.00135131 0.0172522 0.0122874 0.00629692 0.0166706 0.0109944 0.0100957 0.0168784 0.013334 
0.000770461 0.0169867 0.0107704 0.00625096 0.0239883 0.0114587 0.00306022 0.0197526 0.0109944 
0.00827391 0.0245381 0.010678 0.00128398 0.0212793 0.0112839 0.00694558 0.0213048 0.0108754 
0.00407862 0.0223216 0.0112839 0.00113009 0.0188751 0.01113 0.00241443 0.0173559 0.0108755 
0.00527222 0.0202291 0.01113 0.00996894 0.0201123 0.0107705 0.0104143 0.0185287 0.0108754 
0.00286008 0.0230932 0.0134084 0.00900631 0.0166378 0.0107705 0.000770473 0.0232011 0.0107704 
0.0059987 0.0217478 0.0124259 0.00304139 0.020835 0.0126643 0.00787483 0.0189107 0.011883 
0.00444512 0.0179665 0.0112839 0.0092608 0.0224158 0.011883 0.00472459 0.0194621 0.0133524 
0.000994461 0.0238972 0.0123767 0.00564314 0.0168582 0.0126281 0.00442866 0.0217707 0.0132319 
0.00470328 0.023391 0.0128056 0.00897939 0.0242582 0.0136396 0.00803803 0.024655 0.0126127 
0.01103 0.0245042 0.0109944 0.00290742 0.0246068 0.0112839 0.0111993 0.0244073 0.0131099 
0.0117333 0.0229397 0.010678 0.000875388 0.0252124 0.0108754 0.0119116 0.0170258 0.0112838 
0.0159125 0.0167702 0.0129251 0.012281 0.0187002 0.0124155 0.0133162 0.0168565 0.0129153 
0.0171465 0.0178106 0.01113 0.0137325 0.0224779 0.0109944 0.0149801 0.024027 0.0109944 
0.0231236 0.0227954 0.0108755 0.0194327 0.0187761 0.0112839 0.0121005 0.0207057 0.0114587 
0.0154599 0.0228817 0.0127184 0.0181708 0.0218431 0.0107705 0.0170101 0.0233085 0.01113 
0.0187233 0.0170502 0.0106779 0.0233358 0.0213652 0.0105965 0.0223389 0.0190404 0.0116574 
0.0142734 0.0184092 0.0114588 0.0161106 0.0216078 0.0107705 0.016153 0.0193904 0.0107703 
0.0205666 0.0220972 0.011883 0.0145881 0.0210368 0.0121269 0.0231245 0.0169565 0.0128639 
0.0140638 0.0203871 0.0106779 0.0173098 0.0204946 0.0128876 0.0142333 0.0217755 0.0136902 
0.0176159 0.025086 0.0128792 0.0181634 0.0232981 0.0129142 0.0231245 0.0212871 0.0125241 
0.0230055 0.0230732 0.0130649 0.00935918 0.0264541 0.0116574 0.0094665 0.028712 0.0107704 
0.00747751 0.0286838 0.0112839 0.00857699 0.0322445 0.01113 0.00128501 0.0320229 0.0112839 
0.00331453 0.0271422 0.0112839 0.000994448 0.0271483 0.0109944 0.00535806 0.0287589 0.0108755 
0.00603746 0.0312212 0.0116574 0.00584844 0.0266959 0.0112839 0.0106489 0.0313404 0.01113 
0.00892986 0.0302867 0.0108755 0.00165746 0.0293155 0.0123714 0.00441122 0.0256044 0.0131107 
0.00385593 0.0298662 0.0109944 0.00466346 0.0284242 0.0128215 0.00146538 0.0259463 0.0126816 
0.00332292 0.0312176 0.012172 0.00710734 0.0261734 0.0132763 0.0074154 0.0256009 0.010678 
0.000770489 0.0274389 0.0136311 0.00223425 0.0335087 0.0116891 0.0034525 0.0326644 0.0109944 
0.00931691 0.0293239 0.0122929 0.000596491 0.0312461 0.0128519 0.0122898 0.0314256 0.012902 
0.0117239 0.0288212 0.0116574 0.00752623 0.0334003 0.0122127 0.00700005 0.0332677 0.0107704 
0.0116166 0.0265637 0.0107704 0.000875475 0.0335588 0.0127455 0.0189936 0.0259251 0.012897 
0.0121572 0.0308401 0.010525 0.0222653 0.0251954 0.0116573 0.0130121 0.0243376 0.0109944 
0.0167538 0.0255544 0.01113 0.0127294 0.0261532 0.0124478 0.0201866 0.026082 0.0122466 
0.015273 0.0251331 0.0127846 0.0190449 0.0248095 0.0112839 0.0144723 0.0259501 0.0109944 
0.0157432 0.0274801 0.0109944 0.017999 0.0276168 0.0112839 0.0144408 0.0291541 0.01113 
0.0129482 0.0324832 0.0109944 0.0225413 0.0314148 0.0114587 0.0196122 0.0266724 0.010678 
0.0151931 0.0316095 0.0114587 0.0196253 0.0315117 0.0114587 0.0234032 0.026847 0.0105965 
0.0164759 0.029304 0.0121015 0.0135065 0.0274251 0.0107705 0.0185147 0.0294386 0.0120814 
0.0173476 0.0317478 0.010678 0.0232987 0.0281154 0.010678 0.0209844 0.0284883 0.011883 
0.0133099 0.030558 0.0113565 0.017747 0.0302544 0.0108754 0.0174009 0.0312039 0.0124487 
0.0143398 0.0274886 0.0120651 0.0198213 0.0332006 0.0130604 0.0198477 0.0336775 0.0107704 
0.023322 0.0331124 0.0124955 0.0232296 0.0272389 0.0125458 0.000994476 0.0342642 0.0109944 
0.000875474 0.0361266 0.0108754 0.00274517 0.0342658 0.0107704 0.000875456 0.0378776 0.0108754 
0.00602584 0.0354407 0.010678 0.0114795 0.0406703 0.0121393 0.00785361 0.0349276 0.01113 
0.00693611 0.0375065 0.0116573 0.00388073 0.03622 0.0116574 0.00675277 0.0408287 0.0116573 
0.00932216 0.0365565 0.0109944 0.0039491 0.0393292 0.0114587 0.00946219 0.0385616 0.0109944 
0.00128395 0.0399583 0.0112839 0.00522177 0.0338339 0.01113 0.00129368 0.0356681 0.0129437 
0.0104923 0.0342 0.0116574 0.00490954 0.0380482 0.0134931 0.00479478 0.0405595 0.0136231 
0.00195445 0.0380216 0.0125598 0.00920348 0.040161 0.0105965 0.00864768 0.0392671 0.0129768 
0.00621577 0.0351554 0.0122649 0.009161 0.0414325 0.010678 0.012897 0.0343486 0.0108754 
0.00258333 0.0407004 0.0131782 0.0174639 0.0340248 0.0118831 0.0147267 0.0339809 0.0109944 
0.0212343 0.0334558 0.0118397 0.013684 0.0390656 0.0134257 0.0179767 0.036714 0.0109944 
0.0230055 0.0337786 0.0109944 0.012902 0.0369165 0.011883 0.0156439 0.0378215 0.0109944 
0.0140131 0.0410885 0.0107704 0.0196519 0.0389984 0.011883 0.0203038 0.0357482 0.0114587 
0.0232294 0.0402675 0.0107705 0.0154204 0.0358453 0.0109943 0.0173171 0.0383366 0.0107705 
0.0227101 0.0382983 0.0112839 0.0228699 0.0358945 0.01113 0.0178681 0.0408459 0.0108754 
0.0223709 0.0402512 0.0129164 0.0145745 0.0395214 0.0116875 0.01624 0.0394676 0.0107704 
0.015928 0.0413076 0.01113 0.0170623 0.0399185 0.0121231 0.0154056 0.0368424 0.0122358 
0.0143148 0.0412265 0.0124858 0.00581868 0.0492504 0.0120822 0.0033702 0.049994 0.0133919 
0.00774489 0.0425611 0.0132163 0.00323114 0.0453538 0.0124629 0.00862747 0.0484865 0.0125093 
0.00587034 0.0477084 0.0127277 0.00939244 0.0465034 0.0122359 0.004703 0.0435357 0.0128227 
0.00666018 0.0436259 0.0121031 0.00275243 0.0462116 0.0109944 0.0106392 0.0479407 0.0114587 
0.00144277 0.0454849 0.0123035 0.000875486 0.046565 0.0108754 0.00128821 0.0480889 0.0123486 
0.00370923 0.0444641 0.0109944 0.000770436 0.0449258 0.0107704 0.00707537 0.0494363 0.0109944 
0.00166641 0.0428509 0.0116574 0.0112121 0.0446757 0.011883 0.00843892 0.0455821 0.01113 
0.00587113 0.0456088 0.0114587 0.00793039 0.0476405 0.0109944 0.00386987 0.0483461 0.0114587 
0.00607712 0.0478596 0.0108754 0.00848912 0.0431735 0.0112839 0.00560983 0.0433116 0.0108754 
[...]
POINT_DATA 538
FIELD FieldData 7
id 1 538 int
1 2 3 4 5 6 7 8 9 
10 11 12 13 14 15 16 17 18 
19 20 21 22 24 25 26 29 31 
33 34 35 38 39 45 55 56 57 
58 59 60 61 62 63 64 65 66 
67 68 69 70 71 72 73 76 77 
80 81 82 85 90 95 96 106 107 
108 109 110 111 112 113 114 115 116 
117 118 119 120 121 122 124 126 128 
129 131 132 133 134 141 144 155 162 
163 164 165 166 167 168 169 170 171 
172 173 174 175 176 177 178 179 181 
184 187 190 191 192 194 197 198 200 
219 220 222 223 224 225 226 227 228 
229 230 231 232 233 234 235 236 237 
238 239 240 241 242 244 245 248 250 
251 254 262 264 265 270 273 275 276 
279 283 284 285 286 287 288 289 290 
291 292 293 294 295 296 297 298 299 
300 301 302 303 305 306 308 309 310 
317 330 331 332 333 334 335 336 337 
338 339 340 341 342 343 344 346 347 
348 349 351 353 357 359 362 366 368 
375 376 379 380 382 385 386 387 388 
389 390 391 392 393 394 395 396 397 
398 399 400 401 402 403 404 405 406 
408 409 410 411 413 415 416 417 418 
419 421 435 436 437 439 440 441 442 
443 444 445 446 447 448 449 450 451 
453 455 456 457 458 459 460 466 478 
479 497 498 499 500 501 502 503 504 
505 506 507 508 509 510 511 513 514 
515 516 517 522 523 524 535 486 487 
488 489 490 491 492 493 494 495 496 
512 518 519 520 521 525 526 527 528 
529 530 531 532 533 534 536 537 538 
438 452 454 461 462 463 464 465 467 
468 469 470 471 472 473 474 475 476 
477 480 481 482 483 484 485 355 356 
358 360 361 363 364 365 367 369 370 
371 372 373 374 377 378 381 383 384 
407 412 414 420 422 423 424 425 426 
427 428 429 430 431 432 433 434 266 
267 268 269 271 272 274 277 278 280 
281 282 304 307 311 312 313 314 315 
316 318 319 320 321 322 323 324 325 
326 327 328 329 345 350 352 354 207 
208 209 210 211 212 213 214 215 216 
217 218 221 243 246 247 249 252 253 
255 256 257 258 259 260 261 263 142 
143 145 146 147 148 149 150 151 152 
153 154 156 157 158 159 160 161 180 
182 183 185 186 188 189 193 195 196 
199 201 202 203 204 205 206 86 87 
88 89 91 92 93 94 97 98 99 
100 101 102 103 104 105 123 125 127 
130 135 136 137 138 139 140 23 27 
28 30 32 36 37 40 41 42 43 
44 46 47 48 49 50 51 52 53 
54 74 75 78 79 83 84 
type 1 538 int
1 1 1 1 1 1 1 1 1 
1 1 1 1 1 1 1 1 1 
1 1 1 1 1 1 1 1 1 
1 1 1 1 1 1 1 1 1 
1 1 1 1 1 1 1 1 1 
1 1 1 1 1 1 1 1 1 
1 1 1 1 1 1 1 1 1 
1 1 1 1 1 1 1 1 1 
1 1 1 1 1 1 1 1 1 
1 1 1 1 1 1 1 1 1 
1 1 1 1 1 1 1 1 1 
1 1 1 1 1 1 1 1 1 
1 1 1 1 1 1 1 1 1 
1 1 1 1 1 1 1 1 1 
1 1 1 1 1 1 1 1 1 
1 1 1 1 1 1 1 1 1 
1 1 1 1 1 1 1 1 1 
1 1 1 1 1 1 1 1 1 
1 1 1 1 1 1 1 1 1 
1 1 1 1 1 1 1 1 1 
1 1 1 1 1 1 1 1 1 
1 1 1 1 1 1 1 1 1 
1 1 1 1 1 1 1 1 1 
1 1 1 1 1 1 1 1 1 
1 1 1 1 1 1 1 1 1 
1 1 1 1 1 1 1 1 1 
1 1 1 1 1 1 1 1 1 
1 1 1 1 1 1 1 1 1 
1 1 1 1 1 1 1 1 1 
1 1 1 1 1 1 1 1 1 
1 1 1 1 1 1 1 1 1 
1 1 1 1 1 1 1 1 1 
1 1 1 1 1 1 1 1 1 
1 1 1 1 1 1 1 1 1 
1 1 1 1 1 1 1 1 1 
1 1 1 1 1 1 1 1 1 
1 1 1 1 1 1 1 1 1 
1 1 1 1 1 1 1 1 1 
1 1 1 1 1 1 1 1 1 
1 1 1 1 1 1 1 1 1 
1 1 1 1 1 1 1 1 1 
1 1 1 1 1 1 1 1 1 
1 1 1 1 1 1 1 1 1 
1 1 1 1 1 1 1 1 1 
1 1 1 1 1 1 1 1 1 
1 1 1 1 1 1 1 1 1 
1 1 1 1 1 1 1 1 1 
1 1 1 1 1 1 1 1 1 
1 1 1 1 1 1 1 1 1 
1 1 1 1 1 1 1 1 1 
1 1 1 1 1 1 1 1 1 
1 1 1 1 1 1 1 1 1 
1 1 1 1 1 1 1 1 1 
1 1 1 1 1 1 1 1 1 
1 1 1 1 1 1 1 1 1 
1 1 1 1 1 1 1 1 1 
1 1 1 1 1 1 1 1 1 
1 1 1 1 1 1 1 1 1 
1 1 1 1 1 1 1 1 1 
1 1 1 1 1 1 1 
i 3 538 int
0 0 0 0 0 0 0 0 0 
0 0 0 0 0 0 0 0 0 
0 0 0 0 0 0 0 0 0 
0 0 0 0 0 0 0 0 0 
0 0 0 0 0 0 0 0 0 
0 0 0 0 0 0 0 0 0 
0 0 0 0 0 0 0 0 0 
0 0 0 0 0 0 0 0 0 
0 0 0 0 0 0 0 0 0 
0 0 0 0 0 0 0 0 0 
0 0 0 0 0 0 0 0 0 
0 0 0 0 0 0 0 0 0 
0 0 0 0 0 0 0 0 0 
0 0 0 0 0 0 0 0 0 
0 0 0 0 0 0 0 0 0 
0 0 0 0 0 0 0 0 0 
0 0 0 0 0 0 0 0 0 
0 0 0 0 0 0 0 0 0 
0 0 0 0 0 0 0 0 0 
0 0 0 0 0 0 0 0 0 
0 0 0 0 0 0 0 0 0 
0 0 0 0 0 0 0 0 0 
0 0 0 0 0 0 0 0 0 
0 0 0 0 0 0 0 0 0 
0 0 0 0 0 0 0 0 0 
0 0 0 0 0 0 0 0 0 
0 0 0 0 0 0 0 0 0 
0 0 0 0 0 0 0 0 0 
0 0 0 0 0 0 0 0 0 
0 0 0 0 0 0 0 0 0 
0 0 0 0 0 0 0 0 0 
0 0 0 0 0 0 0 0 0 
0 0 0 0 0 0 0 0 0 
0 0 0 0 0 0 0 0 0 
0 0 0 0 0 0 0 0 0 
0 0 0 0 0 0 0 0 0 
0 0 0 0 0 0 0 0 0 
0 0 0 0 0 0 0 0 0 
0 0 0 0 0 0 0 0 0 
0 0 0 0 0 0 0 0 0 
0 0 0 0 0 0 0 0 0 
0 0 0 0 0 0 0 0 0 
0 0 0 0 0 0 0 0 0 
0 0 0 0 0 0 0 0 0 
0 0 0 0 0 0 0 0 0 
0 0 0 0 0 0 0 0 0 
0 0 0 0 0 0 0 0 0 
0 0 0 0 0 0 0 0 0 
0 0 0 0 0 0 0 0 0 
0 0 0 0 0 0 0 0 0 
0 0 0 0 0 0 0 0 0 
0 0 0 0 0 0 0 0 0 
0 0 0 0 0 0 0 0 0 
0 0 0 0 0 0 0 0 0 
0 0 0 0 0 0 0 0 0 
0 0 0 0 0 0 0 0 0 
0 0 0 0 0 0 0 0 0 
0 0 0 0 0 0 0 0 0 
0 0 0 0 0 0 0 0 0 
0 0 0 0 0 0 0 0 0 
0 0 0 0 0 0 0 0 0 
0 0 0 0 0 0 0 0 0 
0 0 0 0 0 0 0 0 0 
0 0 0 0 0 0 0 0 0 
0 0 0 0 0 0 0 0 0 
0 0 0 0 0 0 0 0 0 
0 0 0 0 0 0 0 0 0 
0 0 0 0 0 0 0 0 0 
0 0 0 0 0 0 0 0 0 
0 0 0 0 0 0 0 0 0 
0 0 0 0 0 0 0 0 0 
0 0 0 0 0 0 0 0 0 
0 0 0 0 0 0 0 0 0 
0 0 0 0 0 0 0 0 0 
0 0 0 0 0 0 0 0 0 
0 0 0 0 0 0 0 0 0 
0 0 0 0 0 0 0 0 0 
0 0 0 0 0 0 0 0 0 
0 0 0 0 0 0 0 0 0 
0 0 0 0 0 0 0 0 0 
0 0 0 0 0 0 0 0 0 
0 0 0 0 0 0 0 0 0 
0 0 0 0 0 0 0 0 0 
0 0 0 0 0 0 0 0 0 
0 0 0 0 0 0 0 0 0 
0 0 0 0 0 0 0 0 0 
0 0 0 0 0 0 0 0 0 
0 0 0 0 0 0 0 0 0 
0 0 0 0 0 0 0 0 0 
0 0 0 0 0 0 0 0 0 
0 0 0 0 0 0 0 0 0 
0 0 0 0 0 0 0 0 0 
0 0 0 0 0 0 0 0 0 
0 0 0 0 0 0 0 0 0 
0 0 0 0 0 0 0 0 0 
0 0 0 0 0 0 0 0 0 
0 0 0 0 0 0 0 0 0 
0 0 0 0 0 0 0 0 0 
0 0 0 0 0 0 0 0 0 
0 0 0 0 0 0 0 0 0 
0 0 0 0 0 0 0 0 0 
0 0 0 0 0 0 0 0 0 
0 0 0 0 0 0 0 0 0 
0 0 0 0 0 0 0 0 0 
0 0 0 0 0 0 0 0 0 
0 0 0 0 0 0 0 0 0 
0 0 0 0 0 0 0 0 0 
0 0 0 0 0 0 0 0 0 
0 0 0 0 0 0 0 0 0 
0 0 0 0 0 0 0 0 0 
0 0 0 0 0 0 0 0 0 
0 0 0 0 0 0 0 0 0 
0 0 0 0 0 0 0 0 0 
0 0 0 0 0 0 0 0 0 
0 0 0 0 0 0 0 0 0 
0 0 0 0 0 0 0 0 0 
0 0 0 0 0 0 0 0 0 
0 0 0 0 0 0 0 0 0 
0 0 0 0 0 0 0 0 0 
0 0 0 0 0 0 0 0 0 
0 0 0 0 0 0 0 0 0 
0 0 0 0 0 0 0 0 0 
0 0 0 0 0 0 0 0 0 
0 0 0 0 0 0 0 0 0 
0 0 0 0 0 0 0 0 0 
0 0 0 0 0 0 0 0 0 
0 0 0 0 0 0 0 0 0 
0 0 0 0 0 0 0 0 0 
0 0 0 0 0 0 0 0 0 
0 0 0 0 0 0 0 0 0 
0 0 0 0 0 0 0 0 0 
0 0 0 0 0 0 0 0 0 
0 0 0 0 0 0 0 0 0 
0 0 0 0 0 0 0 0 0 
0 0 0 0 0 0 0 0 0 
0 0 0 0 0 0 0 0 0 
0 0 0 0 0 0 0 0 0 
0 0 0 0 0 0 0 0 0 
0 0 0 0 0 0 0 0 0 
0 0 0 0 0 0 0 0 0 
0 0 0 0 0 0 0 0 0 
0 0 0 0 0 0 0 0 0 
0 0 0 0 0 0 0 0 0 
0 0 0 0 0 0 0 0 0 
0 0 0 0 0 0 0 0 0 
0 0 0 0 0 0 0 0 0 
0 0 0 0 0 0 0 0 0 
0 0 0 0 0 0 0 0 0 
0 0 0 0 0 0 0 0 0 
0 0 0 0 0 0 0 0 0 
0 0 0 0 0 0 0 0 0 
0 0 0 0 0 0 0 0 0 
0 0 0 0 0 0 0 0 0 
0 0 0 0 0 0 0 0 0 
0 0 0 0 0 0 0 0 0 
0 0 0 0 0 0 0 0 0 
0 0 0 0 0 0 0 0 0 
0 0 0 0 0 0 0 0 0 
0 0 0 0 0 0 0 0 0 
0 0 0 0 0 0 0 0 0 
0 0 0 0 0 0 0 0 0 
0 0 0 0 0 0 0 0 0 
0 0 0 0 0 0 0 0 0 
0 0 0 0 0 0 0 0 0 
0 0 0 0 0 0 0 0 0 
0 0 0 0 0 0 0 0 0 
0 0 0 0 0 0 0 0 0 
0 0 0 0 0 0 0 0 0 
0 0 0 0 0 0 0 0 0 
0 0 0 0 0 0 0 0 0 
0 0 0 0 0 0 0 0 0 
0 0 0 0 0 0 0 0 0 
0 0 0 0 0 0 0 0 0 
0 0 0 0 0 0 0 0 0 
0 0 0 0 0 0 0 0 0 
0 0 0 0 0 0 0 0 0 
0 0 0 0 0 0 0 0 0 
0 0 0 0 0 0 0 0 0 
0 0 0 0 0 0 0 0 0 
0 0 0 
v 3 538 double
0.00487612 -0.0255168 6.04899e-05 -0.00143793 -0.000686109 -2.90798e-12 0.002392 -9.03755e-05 -2.66823e-05 
0.00137651 -0.00108507 7.81299e-05 -6.03687e-05 -8.82407e-05 -0.00014777 0.00221174 0.0028439 8.46886e-05 
-0.00296995 -0.000160841 -0.000473755 0.00155446 9.65823e-05 -3.19914e-12 -1.26986e-05 4.44065e-05 5.29746e-06 
0.00203695 7.73779e-05 -4.56012e-05 -0.00132568 0.000456219 5.60233e-13 0.0109556 -0.0028741 1.08648e-11 
0.000312342 0.00165064 9.61845e-05 4.12227e-05 -0.00172791 1.02594e-05 1.70259e-05 8.24543e-06 -0.00189599 
-0.00350236 -0.000816637 -2.91554e-05 0.00252411 0.000128616 -0.000135348 -2.96644e-05 -0.00160406 2.39152e-05 
-0.00257571 -0.00658516 5.0398e-12 0.00163007 -0.00153917 -0.00180694 0.00346224 0.000317475 -6.80239e-05 
-0.000212147 0.00169603 0.00107276 -3.44837e-05 0.0745321 0.00245612 0.00237726 0.000397306 -0.000244969 
-0.00232598 -0.024569 -4.6931e-06 1.72417e-05 0.00059701 0.000325236 -0.0274977 0.00150953 -0.00315514 
-0.0595506 0.00757074 -0.0183681 -0.00174656 -2.22475e-05 0.00759458 0.00281073 5.72835e-05 0.00186275 
2.56369e-05 -0.00105415 -0.000646998 0.00294941 -0.0283352 -0.00155617 -0.032737 -0.0156561 -0.00823838 
-0.00497561 -0.0262665 0.0187317 -0.0222697 -0.0297244 -1.28133e-12 -0.000542131 -8.40047e-05 -8.34997e-05 
0.00263131 0.00232002 0.000382065 0.0139417 0.00168458 6.92959e-05 0.00915743 0.00529764 8.12923e-06 
0.0105128 -0.000818432 3.68584e-05 2.46828e-05 -0.000134656 -4.57973e-05 -0.000403401 -1.31059e-05 8.82776e-05 
0.013357 0.00429642 -7.42712e-05 0.00480844 5.78245e-05 6.46563e-05 -0.0201906 0.0172757 5.53839e-12 
0.00528092 -6.49241e-05 -1.1634e-05 0.0047989 0.000507376 2.22296e-05 -9.90622e-05 0.00849774 9.53909e-05 
0.108312 -0.058698 -0.0545992 0.0888892 -0.123277 0.00147668 0.00470293 0.00785277 0.000267981 
0.00862382 -0.00310128 3.4114e-05 0.0151411 -0.00193736 9.94134e-06 -5.13248e-05 -0.00220628 0.000754063 
8.68585e-05 0.00574834 -0.00013477 -4.617e-06 0.00760955 0.00148321 0.0101653 -0.00341272 0.00322081 
0.0115623 -0.00221618 -0.00206675 0.00145697 -3.35496e-05 0.00130588 -0.0227532 -0.0252721 -9.73371e-05 
0.00200025 1.86621e-05 0.00184364 -0.0156806 0.0171062 -0.000152592 -0.0412035 0.00277134 -9.69997e-05 
-0.0148833 -0.0240574 -9.26829e-05 -0.00430367 0.00128495 -4.19422e-05 -0.008701 0.00647748 0.00011113 
0.00972984 -0.00307606 -3.83063e-05 -0.00415055 0.00080039 0.000229512 5.8364e-05 -0.000833524 2.59061e-05 
0.000928388 -0.000905984 5.74054e-05 0.0177587 -0.0379038 -1.92884e-12 -1.6511e-06 -0.000720743 0.000144499 
-0.000699698 0.0355961 -0.000112353 0.00730238 -0.00470341 0.000211705 -0.00909763 0.0245107 -0.0127228 
-0.00427391 0.00124826 1.82643e-06 -0.0249029 0.025533 0.00569873 8.10097e-06 0.021822 -0.0169354 
-0.133987 -0.0368415 -0.0435789 0.00469751 -0.0199346 -0.00555043 0.118072 -0.0162029 -4.43881e-05 
-0.0297098 0.0261059 0.0124716 -0.0359614 -0.0100014 -0.00636206 -0.033385 0.121987 0.00860771 
0.0379317 -0.0588409 1.62698e-12 -0.0238643 0.00422983 0.000315237 -0.0105623 -0.0833272 1.71454e-05 
0.000100684 -0.0174601 0.000396052 -9.87826e-05 0.0132938 0.00789681 -0.0572517 0.0826165 -0.0664244 
0.247857 0.325378 -0.0447129 -0.0513218 -0.130451 0.000339737 0.0407467 -0.0746079 -0.0538127 
0.00153847 0.0115551 -0.000819099 0.0164037 -0.0392295 -2.87018e-05 -0.0315188 -0.00316356 0.000187447 
-0.0388747 -0.00606877 0.00033085 0.0593568 0.0353557 5.0558e-05 -0.0904129 0.0436832 -0.000146155 
-0.0303867 0.076537 -0.000716579 0.000615063 0.00930369 -6.34259e-05 0.0234809 0.0106437 -0.000486473 
-0.000235959 0.0300338 1.18553e-12 -0.00261799 0.055476 0.000760325 0.0055535 -0.00475029 -0.00984479 
-0.0350799 0.0752703 -0.000220534 -0.0549044 -0.0326814 3.79163e-05 -0.00696955 -0.0085122 -0.00540418 
0.00533443 -0.0193127 -3.85488e-05 -0.0131299 -0.0311388 -0.00268609 -0.0640192 0.0380248 -0.0102058 
-0.00389102 -0.00314467 -2.41613e-08 0.0332293 -0.0310509 -0.0167609 -0.0093934 0.0849133 0.0973203 
0.0524913 -0.0646964 -0.0277859 -0.00242674 -0.0423211 2.12954e-05 0.000230456 0.0458523 -0.000803302 
-0.0281065 0.0181907 -0.00170884 0.011096 -0.00512256 -6.71385e-05 -0.020633 -0.0269223 0.0167293 
4.85334e-05 -0.0548558 0.000114539 -9.29415e-05 -0.000982742 -0.000116527 0.0104715 0.000265905 1.30747e-05 
0.019054 -0.0956568 -1.15296e-11 0.00178686 0.021014 0.000203248 0.0205574 0.000732315 0.000384151 
0.00734245 -0.000435242 -0.000275145 -5.93992e-05 0.0222389 -0.00022521 0.0113931 0.0320755 6.73403e-06 
0.0189904 0.00553677 -0.00123841 0.0202701 -0.00585647 7.34882e-12 0.0159988 -0.0215756 0.000160415 
-0.0417563 -0.0203395 -0.0217978 -0.00423494 -0.0242151 5.75064e-12 -0.000537911 0.0191864 -0.00096894 
0.023334 -0.00168332 0.00413163 -0.00380673 0.0116737 0.00508374 0.0194998 0.00543744 7.08717e-05 
0.0194105 0.00536239 0.00076055 0.0208068 -0.00187883 0.000152231 0.00525483 0.0167714 -0.00388454 
-0.000351676 0.0705365 -0.0244517 0.323653 -0.0304953 0.0738183 0.0273854 -0.0148374 -0.00793128 
-0.0698896 0.0967613 -0.0369716 0.343091 0.244513 -0.206681 0.00053231 -0.015209 0.00696692 
0.0140689 0.00362712 1.61721e-05 -0.0668376 -0.0373058 0.000481952 0.0673747 -0.212923 -0.0141094 
0.0785793 -0.0147958 6.24955e-12 0.00337192 0.21261 0.000956609 -0.0359993 -0.0674651 4.76612e-05 
-0.0225926 -0.0150644 -0.00204997 -0.067787 -0.0342182 -0.0388383 -0.0362143 -0.0487116 0.00214791 
-0.0393853 0.00847339 9.08496e-05 -0.0561065 0.0650409 6.08854e-05 0.0308039 -0.00647461 0.00187584 
-0.000352052 -0.014517 3.70118e-12 -0.0107132 -0.00368402 2.28815e-05 0.016248 -0.00820402 -4.20969e-06 
-0.112741 -0.0174159 0.0396428 -0.0156991 0.108847 -0.000446111 -0.148464 -0.0397087 -0.000311348 
-0.0401264 0.00879773 -0.000639268 -0.00037675 -0.0147286 6.22669e-12 -0.00374313 0.0399786 0.00079386 
-0.0503837 -0.042244 -0.000266937 -0.204659 -0.094733 -1.28133e-12 -0.0667207 -0.00861466 0.000861 
-0.00298474 0.0432082 -0.000453399 -0.0521629 -0.0353852 0.0180914 -0.00151232 0.102061 0.109391 
0.010068 -0.0374054 -0.00140626 -0.0176689 0.0390697 -0.0495924 -0.461871 0.142693 -0.157841 
-0.0874414 0.0688775 0.00908408 -0.0212088 0.080793 -0.0823539 -0.000543278 0.0463341 -0.0275688 
-0.000458848 0.0235105 0.0384692 -0.00241463 -0.0174837 0.000944713 0.00687056 -0.0258329 0.00278249 
-0.000614665 -0.0313713 -0.00064783 0.0602836 0.02438 8.46153e-05 0.00900385 0.00858523 -4.06448e-05 
0.0432769 -0.0551374 -0.000400272 2.67833e-05 -0.102711 0.000167861 0.00640699 0.000136443 -7.06946e-05 
0.0598995 -0.00401471 -0.000827609 0.0205124 0.00402695 0.000202467 0.0143103 -0.103401 3.27367e-05 
-0.125106 -0.0100514 0.000109278 -0.00071065 -0.0356335 -0.104734 0.0295957 -0.0884873 -0.0477996 
0.0376142 0.0364885 -0.0030252 0.307366 -0.373415 0.0322509 0.0790586 0.0367367 0.0776277 
-0.0106778 0.0125375 0.00394004 -0.00104174 -0.0170662 0.00855266 0.0471007 -0.0344106 5.294e-05 
-0.000767173 0.0421678 0.00821589 -0.24223 0.141904 -0.0164342 0.0154373 0.00710419 3.22305e-05 
-0.0542238 -0.0455476 0.0177312 2.44401e-05 -0.0655767 -0.0407645 0.136436 -0.15076 -0.0382411 
0.018851 -0.140842 0.00121248 0.0579014 0.0241613 -0.00190962 0.0489164 0.0279828 0.000476353 
0.00393599 -0.142085 0.00197231 -6.51546e-05 0.0837123 -0.082063 -0.239001 0.476875 -0.338364 
0.03232 -0.0337933 -1.40536e-11 0.050475 0.016244 0.000670577 0.028233 0.126087 -4.46904e-08 
-0.11954 -0.0322368 0.000171673 0.00905788 -0.159955 -0.00346474 0.0017805 -0.0268179 -0.104331 
-0.0863932 -0.0137876 0.0373286 -0.108519 -0.00992477 0.00175381 0.024586 -0.0062312 -0.00347708 
0.0131857 0.00265921 -8.06775e-05 0.0200005 -0.117114 -7.56931e-05 0.00192544 -0.0106668 -0.000401433 
0.00319031 0.00763838 0.00150554 -0.00568022 -0.00472393 0.000973012 0.0777956 0.00751458 1.37168e-11 
-0.000402721 -0.0071333 -2.20481e-05 -0.0106497 -0.00388929 -0.000406797 -0.000343212 0.0466056 -9.2029e-12 
0.0196741 -0.0987916 -0.0238419 -0.0118677 -0.00156572 -0.00073599 -0.0511059 -0.101125 0.00762259 
-0.043464 0.00816383 3.59866e-10 -0.0125445 0.0453309 -1.01072e-11 -0.0127784 -0.0052377 -3.33026e-05 
-0.158399 0.110409 -0.982031 0.00921467 -0.0454921 0.00376501 0.0113258 0.00341973 -0.0211389 
0.0189036 -0.0607973 -0.018702 0.492066 0.520959 -0.589774 -0.008086 0.0179396 -0.000400102 
0.000195303 -0.00580819 -0.000747159 0.000716925 0.0307984 0.0194692 -0.000891429 0.00881653 0.000169376 
-0.000249498 0.0114754 -0.000834053 -0.0016084 -0.000478745 -6.36613e-05 9.06569e-05 0.0124337 2.1228e-05 
0.00705835 0.0269248 -1.15296e-11 0.00109712 0.0296665 -9.95566e-05 0.0723453 0.0225382 0.000400477 
0.0193747 0.0045684 8.61058e-05 0.0232105 -0.0153688 5.41118e-05 0.0326689 0.00917537 1.21592e-05 
0.0331412 0.020499 1.67743e-08 -0.00224734 -0.0135997 -0.00129056 -0.0192925 0.0499799 -1.24155e-11 
-0.000143342 0.013871 0.000491878 0.0360033 -0.0100086 -0.000526716 0.00821073 0.0731745 0.0100536 
0.0719224 0.0153188 -0.000669792 0.0121845 -0.00532887 -0.00400167 0.0144486 -0.0470433 -0.0259081 
0.0531767 0.0326322 -0.0358431 -0.0528902 -0.0293595 -1.03898e-11 0.018717 -0.00103659 0.00860781 
0.0545874 -0.0100817 -0.0179461 -0.0350346 -0.0299946 8.21858e-06 0.0740796 0.0112464 0.00104961 
0.0127458 0.000863803 -0.00241275 -0.0106571 0.000537901 -0.00130681 0.0543428 -0.110107 3.81556e-05 
-0.00314118 0.00132278 -0.0107952 0.103539 0.0604614 -0.136735 0.0356809 -0.0249913 8.25663e-12 
0.000470242 -0.00594529 -0.000523916 -0.0403096 0.0135668 -0.00017807 0.316528 -0.0839107 0.000333514 
0.00381504 0.0117273 -1.98704e-05 0.00339406 0.0151008 1.00643e-05 0.00203992 0.0147685 9.81947e-05 
-3.41007e-05 -0.0269534 5.43101e-12 -0.0591869 -0.0445345 0.0012045 0.269675 0.0709857 0.000191215 
0.0212214 -0.00565481 -0.000130496 0.000331941 -0.00635515 -0.000102559 -0.0438003 -0.0303337 -0.000298883 
0.0142539 -0.0135072 0.00706978 -0.118426 -0.22252 -0.324901 0.111526 -0.00603256 0.00225319 
-0.0781759 -0.034374 -0.000360266 0.00658661 0.0116302 0.0622849 0.0854166 -0.183602 0.189393 
0.0846132 -0.174871 -0.356371 -0.00423029 -0.0226638 -0.0089181 -0.00330036 -0.022849 -0.0105942 
0.0176247 0.0211917 -0.00366744 0.212449 0.321299 0.103512 0.0538738 -0.0339379 0.00352719 
0.0194598 -0.0174018 0.000320519 -0.0127503 0.088372 -0.047968 0.00147795 -0.00649569 0.00228842 
0.0360452 -0.0126209 -0.00987532 -0.0607318 0.00536289 4.33598e-05 0.0725641 0.0403475 0.000158666 
-0.0214251 -0.0117924 0.0171469 0.000268896 0.00500128 0.000160568 0.0163768 -0.00999427 0.0119488 
-0.00422062 -0.00300147 -7.00596e-05 0.00104349 0.0041909 0.0010794 0.000627493 -0.00832215 -0.000492632 
0.0284247 0.0131953 -0.000659529 0.0268945 0.0315893 -1.10256e-05 0.0172809 4.87154e-05 -0.000187227 
0.0176996 -0.0169543 0.000105118 0.019773 0.000614897 -3.55746e-05 0.0148913 -0.0301666 0.000189653 
0.0172347 -0.0177135 -0.00014432 0.0439003 0.000685847 -1.34488e-05 0.0247482 -0.0157968 0.000186069 
-0.0651971 0.0502336 0.00375509 0.0212333 -0.0138529 0.00160796 -0.00116373 -0.00921633 -0.0182107 
0.374579 -0.151039 -0.177848 -0.00225541 0.0261472 0.000758862 -0.0137948 0.00919911 -0.00540007 
0.0865634 0.0106314 4.85059e-12 -0.00727244 0.0236645 0.000443683 -0.000318923 -0.0468397 -0.008919 
0.0283254 0.0247278 -0.00625608 0.0857166 0.0209102 -0.0576581 0.0390946 0.00886998 -0.000122293 
0.0752822 0.0126192 -0.0151689 0.071198 -0.0694446 0.000196255 -0.00227897 -0.0561329 0.0055372 
-0.00712236 -0.0581391 3.21911e-05 -0.00223112 -0.0641141 -0.000107466 0.028852 -0.0547454 0.000533648 
-0.0176929 -0.0225065 0.00233332 0.0580933 0.0093324 0.000286182 0.0909196 -0.0156519 0.00503716 
0.000878307 -0.0433955 0.000399147 -6.42454e-05 -0.0601631 6.70955e-12 0.0936747 -0.0057209 -9.56148e-05 
-0.000132439 -0.0956691 3.22783e-06 0.0962828 -0.00431679 0.0011381 -0.016018 -0.0428034 0.0164145 
0.00163837 -0.017733 -0.000354726 -0.0955451 -0.0596501 0.000354603 0.0293612 0.00962361 0.000135508 
-0.000714799 -0.011219 0.0141233 -0.046005 -0.0659573 0.0109196 -0.00130164 -0.00845647 0.0555757 
-0.00384993 -0.0306226 0.0267337 0.00966602 -0.00511477 0.00771965 0.00119223 -0.0145633 0.00592189 
-0.0321347 0.0941065 -0.0111755 0.000697671 -0.0147793 -0.000696371 -0.0942352 0.0640389 -0.0344401 
0.0152214 -0.0105932 -0.030771 0.0373291 0.0584952 0.0292703 -0.0109259 0.0176611 -0.0242758 
0.00242842 -0.0507535 -0.00685964 -0.0402881 -0.0210505 -0.000371381 -0.00895834 -0.0101088 2.60058e-06 
0.0250425 -0.0127852 -0.018349 -0.056602 0.066871 -0.000124974 0.00473064 -0.0575851 0.000464132 
-0.00404146 -0.000870503 0.000204273 -0.0516087 0.0532162 1.54947e-11 0.0171964 -0.0417154 -4.46421e-05 
-0.00233629 -0.0113539 1.91618e-05 -0.0781562 0.0369102 0.000539171 7.35338e-05 0.000783802 1.13574e-11 
-0.00602398 0.128437 -3.66725e-10 0.00569251 -0.0564489 0.00115861 0.021097 -0.0327186 -1.02377e-09 
0.0162787 -0.0429134 0.00142244 -0.00116814 -0.0597972 2.6551e-06 -0.0103951 -0.0750893 -0.00273391 
-3.16632e-05 -0.015592 8.57203e-06 0.012083 -0.0939938 -0.0667479 0.0228495 -0.0652419 0.00886077 
5.06142e-05 -0.0102091 0.0120031 -0.00164208 -0.00959021 -0.00024384 0.00963411 -0.00657839 0.0206192 
-0.00153994 -0.0198875 -0.00485203 0.022645 0.062136 -0.0374444 0.0115321 -0.00523892 0.0136461 