# vtk DataFile Version 4.0
Generated by LIGGGHTS
ASCII
DATASET POLYDATA
POINTS 538 float
0.0101379 0.00474058 0.0116574 0.00390577 0.00439001 0.0108754 0.00633797 0.00214021 0.0121393 
0.00299764 0.00662153 0.0116573 0.000677985 0.00750012 0.010678 0.00675964 0.00640554 0.0121393 
0.00216291 0.00344777 0.0106779 0.00416594 0.000770455 0.0107704 0.000771659 0.00605765 0.0107704 
0.00216038 0.00145875 0.0114587 0.00544661 0.0043796 0.010678 0.00384326 0.00274863 0.0107704 
0.00796098 0.00413022 0.0107705 0.000770423 0.00306 0.0107705 0.000770462 0.000770476 0.01306 
0.00114519 0.0045547 0.0107704 0.00233653 0.000994482 0.0138612 0.000875421 0.00315942 0.0124103 
0.00249351 0.00469768 0.0105965 0.00249191 0.00407402 0.0121933 0.00430484 0.00452678 0.0132041 
0.00886498 0.00505701 0.0138242 0.000994448 0.00643664 0.0133853 0.00343206 0.00258991 0.0132256 
0.00983647 0.00164525 0.0114587 0.000770489 0.00525948 0.0120886 0.0101791 0.00741641 0.0125517 
0.00320087 0.00594736 0.0140905 0.00877296 0.000875474 0.0133888 0.0106556 0.000994477 0.0136778 
0.000770721 0.00446632 0.0134097 0.00938498 0.0071802 0.0108754 0.0114059 0.00682626 0.0138338 
0.0120472 0.00580998 0.012709 0.0120703 0.00591706 0.0107705 0.0125497 0.00128396 0.0112839 
0.0151834 0.0061437 0.01113 0.0225372 0.00368129 0.0114587 0.0164953 0.00393619 0.0114587 
0.0191173 0.0047221 0.0112839 0.0228698 0.0011302 0.01113 0.0144716 0.000770437 0.0107704 
0.0159424 0.00188914 0.0107705 0.0208907 0.000875499 0.0108755 0.021641 0.00545701 0.0106779 
0.0167314 0.000677984 0.010678 0.0186118 0.00165749 0.0116574 0.0228686 0.00788854 0.01113 
0.0158615 0.00773061 0.0128179 0.017248 0.00606981 0.0108755 0.0228561 0.00636645 0.0128008 
0.0133862 0.00407913 0.0116574 0.0198134 0.00738466 0.0114587 0.0230055 0.00191768 0.0130986 
0.0231245 0.00587347 0.0108754 0.0230055 0.00393911 0.0138531 0.0209813 0.00546272 0.0120843 
0.0149505 0.00162545 0.0127726 0.0214584 0.000875517 0.0125322 0.0128676 0.00819454 0.011883 
0.020066 0.000994967 0.013775 0.00883803 0.00909293 0.0117154 0.00471338 0.0121238 0.0112839 
0.00787994 0.0144454 0.0121393 0.00626322 0.00876273 0.010678 0.00415293 0.0149872 0.0116573 
0.0109088 0.0108731 0.0114587 0.00438118 0.00940676 0.0114587 0.00113005 0.0118733 0.01113 
0.00146419 0.0093272 0.0114587 0.00805106 0.0120425 0.010678 0.00077118 0.0137535 0.0107705 
0.00183104 0.01563 0.0108754 0.00944857 0.0124122 0.0107705 0.00113007 0.0145985 0.012446 
0.00682861 0.0106325 0.0112839 0.0106964 0.010683 0.0137755 0.000677977 0.0128531 0.0125808 
0.00410584 0.0110724 0.0132387 0.00873376 0.0112672 0.0130825 0.0107963 0.0135296 0.0109944 
0.00258309 0.0128637 0.0125498 0.00618253 0.0119618 0.013018 0.00266215 0.016064 0.0137521 
0.0103673 0.00840566 0.010678 0.00453197 0.0130097 0.0133832 0.0105971 0.0155086 0.0109944 
0.000524959 0.0157636 0.0113628 0.000770447 0.0161112 0.0135752 0.0120291 0.0155927 0.0135396 
0.0159512 0.00911062 0.0140922 0.0154518 0.00909653 0.0109944 0.0157143 0.0100042 0.0127974 
0.0172797 0.0153944 0.0112839 0.0139318 0.0116029 0.0116574 0.0207808 0.0110681 0.0109944 
0.0154559 0.0164919 0.0108754 0.0174534 0.00839708 0.01113 0.0225412 0.012717 0.0114587 
0.0187902 0.0103557 0.010678 0.0211155 0.00923218 0.0108755 0.0165973 0.0109808 0.01113 
0.0228699 0.0101701 0.01113 0.020387 0.0152639 0.011883 0.0158764 0.0145512 0.0126934 
0.0187493 0.0123818 0.0114587 0.0160713 0.0133102 0.01113 0.0230055 0.0132214 0.0138142 
0.0125474 0.01047 0.0136151 0.0141637 0.0159993 0.0137758 0.0207241 0.0116571 0.0134804 
0.0231245 0.0149057 0.0120227 0.0144439 0.0136605 0.0136639 0.0232295 0.0149657 0.0136642 
0.0142038 0.00963029 0.0138345 0.0135999 0.0149557 0.0116573 0.0230005 0.0164625 0.0109944 
0.00151066 0.016699 0.0122277 0.00599246 0.0167847 0.0109944 0.0101493 0.0169631 0.0133469 
0.000770479 0.0168932 0.0107704 0.00619409 0.024217 0.0114587 0.00303385 0.0196619 0.0109944 
0.00824876 0.0247413 0.010678 0.0012844 0.021133 0.0112839 0.00696242 0.0212652 0.0108754 
0.00427364 0.0222666 0.0112839 0.00113003 0.0187288 0.01113 0.00247129 0.0172596 0.0108754 
0.00513298 0.020016 0.01113 0.00982551 0.0203466 0.0107705 0.01037 0.0187968 0.0108754 
0.00377547 0.0233568 0.0135548 0.00903306 0.0167526 0.0107705 0.000782659 0.0232261 0.01077 
0.00601513 0.0214144 0.0124807 0.00317474 0.0207898 0.0126266 0.00780226 0.0188384 0.011883 
0.00424398 0.0179153 0.0119197 0.00912417 0.0226514 0.011883 0.00495484 0.0197308 0.0135909 
0.00100044 0.0238266 0.0124148 0.00421842 0.0178375 0.0139725 0.00504352 0.0217794 0.0139082 
0.00562815 0.0229314 0.013069 0.00858397 0.0237905 0.0141123 0.00793201 0.0248819 0.0126865 
0.011056 0.0245916 0.0109944 0.00295588 0.0244705 0.0112839 0.0100456 0.0248266 0.0137535 
0.0114044 0.0229542 0.010678 0.000875596 0.0248819 0.0108755 0.0119159 0.0173446 0.0112839 
0.0158972 0.016755 0.0129728 0.012492 0.0185671 0.0128312 0.0132642 0.0171057 0.0129537 
0.0172454 0.0178033 0.01113 0.014734 0.022215 0.0109944 0.014878 0.024359 0.0109944 
0.0231242 0.0228441 0.0108755 0.019424 0.0188319 0.0112839 0.0120801 0.0202749 0.0114587 
0.0159908 0.0232075 0.0123905 0.0182393 0.0217926 0.0107704 0.0178227 0.0236117 0.01113 
0.0187723 0.0169423 0.010678 0.0233382 0.0214121 0.0105965 0.0223397 0.0189437 0.0116574 
0.014401 0.0184919 0.0114587 0.0165351 0.0219064 0.0107705 0.0163086 0.0194174 0.0107703 
0.0206358 0.022039 0.0118829 0.0145106 0.0207755 0.0123486 0.0231245 0.016836 0.0128225 
0.0142097 0.0205088 0.010678 0.017338 0.0205527 0.0129364 0.0153695 0.0221079 0.0138108 
0.0174687 0.0248625 0.012735 0.0183746 0.023282 0.0131565 0.0231247 0.0211351 0.012656 
0.0230056 0.0230541 0.0131611 0.00937804 0.0265386 0.0116573 0.0094656 0.0287971 0.0107704 
0.00747655 0.0288185 0.0112839 0.00850848 0.0323806 0.0111301 0.00128501 0.0317457 0.0112839 
0.0032491 0.0275023 0.0112839 0.000994415 0.0277137 0.0109943 0.00509326 0.0289343 0.0108755 
0.00583113 0.0312279 0.0116574 0.00574971 0.026918 0.0112839 0.0106824 0.0317626 0.01113 
0.00921352 0.0304207 0.0108755 0.00166901 0.0293599 0.0129608 0.00423169 0.0258325 0.0130478 
0.00341767 0.029756 0.0109944 0.0041757 0.0303226 0.0137092 0.00153174 0.0261306 0.0123052 
0.00321948 0.0311989 0.0121672 0.00709924 0.0266081 0.0132613 0.00736544 0.0258661 0.010678 
0.000770464 0.0272174 0.0136659 0.00214355 0.0317477 0.0128761 0.0033566 0.0326489 0.0109944 
0.00851145 0.0283419 0.0132107 0.000596484 0.0313427 0.0129867 0.0117668 0.0316631 0.0132844 
0.011688 0.0292077 0.0116574 0.00719654 0.0331504 0.0122698 0.00685381 0.0332434 0.0107704 
0.0116007 0.0269491 0.0107705 0.00087546 0.0332611 0.0127667 0.0184484 0.0252574 0.013874 
0.0120424 0.0310391 0.0105248 0.0223395 0.0251345 0.0116574 0.0127696 0.0256273 0.0109951 
0.0167628 0.0258355 0.0111299 0.0120298 0.0265785 0.0129312 0.0204797 0.0261564 0.0126326 
0.0152746 0.0254349 0.0127829 0.0191619 0.0256142 0.0112839 0.0146316 0.0265604 0.0109944 
0.0161677 0.0278704 0.0109944 0.018549 0.0282086 0.0112839 0.0144219 0.0290734 0.01113 
0.0127424 0.0323032 0.0109945 0.0225412 0.0315231 0.0114587 0.0201263 0.0272116 0.0106778 
0.0150376 0.0315721 0.0114587 0.0196407 0.0311108 0.0114587 0.0234035 0.0268146 0.0105965 
0.0162642 0.0294837 0.0123734 0.0131379 0.0274738 0.0107705 0.0181305 0.0298268 0.0124786 
0.0170251 0.0316533 0.010678 0.0233221 0.0280839 0.0106779 0.0214916 0.0284996 0.0124202 
0.0132559 0.0307955 0.0123467 0.0174269 0.0301634 0.0108755 0.0166866 0.031366 0.0132634 
0.0138252 0.0261076 0.013812 0.0184887 0.0318582 0.0133464 0.0196896 0.0332307 0.0107704 
0.023322 0.0332206 0.0124955 0.0232295 0.0266937 0.013292 0.000996156 0.0339872 0.0109944 
0.000875459 0.0359816 0.0108754 0.00272238 0.0342808 0.0107705 0.000875462 0.0377325 0.0108754 
0.00602472 0.0353497 0.010678 0.011625 0.0406264 0.0121393 0.00793552 0.034764 0.01113 
0.00694407 0.0373153 0.0116574 0.00379236 0.0362718 0.0116573 0.00680381 0.0406273 0.0116573 
0.00940265 0.036368 0.0109944 0.00395617 0.0393773 0.0114587 0.00936363 0.0385583 0.0109944 
0.00128398 0.0399872 0.0112839 0.005094 0.033864 0.01113 0.00128481 0.0353767 0.0129075 
0.0101146 0.0340275 0.0127044 0.00494851 0.038061 0.0134551 0.00493483 0.0403077 0.0137006 
0.00185649 0.0380439 0.0125967 0.0094282 0.0400977 0.0105965 0.00873876 0.0402429 0.0136267 
0.00454621 0.0359931 0.0140594 0.00920696 0.0413506 0.010678 0.0118648 0.0339499 0.0108753 
0.00280058 0.0408781 0.0132234 0.0173804 0.0339173 0.011883 0.0142452 0.0339123 0.0109944 
0.0211681 0.0335529 0.0116787 0.0133246 0.0385215 0.01347 0.0180029 0.0369214 0.0109944 
0.0230056 0.0338868 0.0109944 0.0128768 0.0363099 0.011883 0.015034 0.0379945 0.0109944 
0.0141392 0.0411488 0.0107704 0.0197365 0.0390581 0.011883 0.0201323 0.0357659 0.0114587 
0.023204 0.0400787 0.0107705 0.0156194 0.0360126 0.0109944 0.0173799 0.0385575 0.0107705 
0.0227161 0.0380865 0.0123387 0.0228699 0.0360026 0.01113 0.0179604 0.0409126 0.0108754 
0.022263 0.0404763 0.0131619 0.0148349 0.0399636 0.0120832 0.0160857 0.0393941 0.0107704 
0.0160883 0.0415849 0.01113 0.0170118 0.0399682 0.0120041 0.0141867 0.0383763 0.0122858 
0.0142653 0.0415787 0.0129074 0.00578377 0.0493691 0.0122402 0.00322123 0.0492618 0.0138397 
0.00699187 0.0435098 0.0136873 0.00288605 0.0433982 0.0136866 0.00839318 0.048641 0.0124738 
0.00581019 0.0477695 0.0127277 0.0105129 0.0466625 0.0131337 0.00475826 0.0435365 0.012852 
0.00665913 0.0437246 0.0120897 0.0028902 0.0462191 0.0109944 0.010425 0.0478504 0.0114587 
0.00152425 0.0455252 0.0122628 0.000875488 0.046599 0.0108754 0.00128388 0.0480477 0.0124238 
0.0037191 0.0444111 0.0109944 0.000770467 0.0449597 0.0107704 0.00715674 0.049367 0.0111902 
0.00165735 0.0428808 0.0116574 0.0111181 0.0446087 0.011883 0.00833317 0.0454781 0.01113 
0.00577256 0.0456703 0.0114588 0.00799069 0.0475705 0.0109944 0.00382083 0.0484411 0.0114587 
0.00601932 0.0479168 0.0108753 0.00842547 0.0430527 0.0112839 0.0056099 0.0433588 0.0108754 
[...]
POINT_DATA 538
FIELD FieldData 7
id 1 538 int
1 2 3 4 5 6 7 8 9 
10 11 12 13 14 15 16 17 18 
19 20 21 22 24 25 26 29 31 
33 34 35 38 39 45 55 56 57 
58 59 60 61 62 63 64 65 66 
67 68 69 70 71 72 73 76 77 
80 81 82 85 90 95 96 106 107 
108 109 110 111 112 113 114 115 116 
117 118 119 120 121 122 124 126 128 
129 131 132 133 134 141 144 155 162 
163 164 165 166 167 168 169 170 171 
172 173 174 175 176 177 178 179 181 
184 187 190 191 192 194 197 198 200 
219 220 222 223 224 225 226 227 228 
229 230 231 232 233 234 235 236 237 
238 239 240 241 242 244 245 248 250 
251 254 262 264 265 270 273 275 276 
279 283 284 285 286 287 288 289 290 
291 292 293 294 295 296 297 298 299 
300 301 302 303 305 306 308 309 310 
317 330 331 332 333 334 335 336 337 
338 339 340 341 342 343 344 346 347 
348 349 351 353 357 359 362 366 368 
375 376 379 380 382 385 386 387 388 
389 390 391 392 393 394 395 396 397 
398 399 400 401 402 403 404 405 406 
408 409 410 411 413 415 416 417 418 
419 421 435 436 437 439 440 441 442 
443 444 445 446 447 448 449 450 451 
453 455 456 457 458 459 460 466 478 
479 497 498 499 500 501 502 503 504 
505 506 507 508 509 510 511 513 514 
515 516 517 522 523 524 535 486 487 
488 489 490 491 492 493 494 495 496 
512 518 519 520 521 525 526 527 528 
529 530 531 532 533 534 536 537 538 
438 452 454 461 462 463 464 465 467 
468 469 470 471 472 473 474 475 476 
477 480 481 482 483 484 485 355 356 
358 360 361 363 364 365 367 369 370 
371 372 373 374 377 378 381 383 384 
407 412 414 420 422 423 424 425 426 
427 428 429 430 431 432 433 434 266 
267 268 269 271 272 274 277 278 280 
281 282 304 307 311 312 313 314 315 
316 318 319 320 321 322 323 324 325 
326 327 328 329 345 350 352 354 207 
208 209 210 211 212 213 214 215 216 
217 218 221 243 246 247 249 252 253 
255 256 257 258 259 260 261 263 142 
143 145 146 147 148 149 150 151 152 
153 154 156 157 158 159 160 161 180 
182 183 185 186 188 189 193 195 196 
199 201 202 203 204 205 206 86 87 
88 89 91 92 93 94 97 98 99 
100 101 102 103 104 105 123 125 127 
130 135 136 137 138 139 140 23 27 
28 30 32 36 37 40 41 42 43 
44 46 47 48 49 50 51 52 53 
54 74 75 78 79 83 84 
type 1 538 int
1 1 1 1 1 1 1 1 1 
1 1 1 1 1 1 1 1 1 
1 1 1 1 1 1 1 1 1 
1 1 1 1 1 1 1 1 1 
1 1 1 1 1 1 1 1 1 
1 1 1 1 1 1 1 1 1 
1 1 1 1 1 1 1 1 1 
1 1 1 1 1 1 1 1 1 
1 1 1 1 1 1 1 1 1 
1 1 1 1 1 1 1 1 1 
1 1 1 1 1 1 1 1 1 
1 1 1 1 1 1 1 1 1 
1 1 1 1 1 1 1 1 1 
1 1 1 1 1 1 1 1 1 
1 1 1 1 1 1 1 1 1 
1 1 1 1 1 1 1 1 1 
1 1 1 1 1 1 1 1 1 
1 1 1 1 1 1 1 1 1 
1 1 1 1 1 1 1 1 1 
1 1 1 1 1 1 1 1 1 
1 1 1 1 1 1 1 1 1 
1 1 1 1 1 1 1 1 1 
1 1 1 1 1 1 1 1 1 
1 1 1 1 1 1 1 1 1 
1 1 1 1 1 1 1 1 1 
1 1 1 1 1 1 1 1 1 
1 1 1 1 1 1 1 1 1 
1 1 1 1 1 1 1 1 1 
1 1 1 1 1 1 1 1 1 
1 1 1 1 1 1 1 1 1 
1 1 1 1 1 1 1 1 1 
1 1 1 1 1 1 1 1 1 
1 1 1 1 1 1 1 1 1 
1 1 1 1 1 1 1 1 1 
1 1 1 1 1 1 1 1 1 
1 1 1 1 1 1 1 1 1 
1 1 1 1 1 1 1 1 1 
1 1 1 1 1 1 1 1 1 
1 1 1 1 1 1 1 1 1 
1 1 1 1 1 1 1 1 1 
1 1 1 1 1 1 1 1 1 
1 1 1 1 1 1 1 1 1 
1 1 1 1 1 1 1 1 1 
1 1 1 1 1 1 1 1 1 
1 1 1 1 1 1 1 1 1 
1 1 1 1 1 1 1 1 1 
1 1 1 1 1 1 1 1 1 
1 1 1 1 1 1 1 1 1 
1 1 1 1 1 1 1 1 1 
1 1 1 1 1 1 1 1 1 
1 1 1 1 1 1 1 1 1 
1 1 1 1 1 1 1 1 1 
1 1 1 1 1 1 1 1 1 
1 1 1 1 1 1 1 1 1 
1 1 1 1 1 1 1 1 1 
1 1 1 1 1 1 1 1 1 
1 1 1 1 1 1 1 1 1 
1 1 1 1 1 1 1 1 1 
1 1 1 1 1 1 1 1 1 
1 1 1 1 1 1 1 
i 3 538 int
0 0 0 0 0 0 0 0 0 
0 0 0 0 0 0 0 0 0 
0 0 0 0 0 0 0 0 0 
0 0 0 0 0 0 0 0 0 
0 0 0 0 0 0 0 0 0 
0 0 0 0 0 0 0 0 0 
0 0 0 0 0 0 0 0 0 
0 0 0 0 0 0 0 0 0 
0 0 0 0 0 0 0 0 0 
0 0 0 0 0 0 0 0 0 
0 0 0 0 0 0 0 0 0 
0 0 0 0 0 0 0 0 0 
0 0 0 0 0 0 0 0 0 
0 0 0 0 0 0 0 0 0 
0 0 0 0 0 0 0 0 0 
0 0 0 0 0 0 0 0 0 
0 0 0 0 0 0 0 0 0 
0 0 0 0 0 0 0 0 0 
0 0 0 0 0 0 0 0 0 
0 0 0 0 0 0 0 0 0 
0 0 0 0 0 0 0 0 0 
0 0 0 0 0 0 0 0 0 
0 0 0 0 0 0 0 0 0 
0 0 0 0 0 0 0 0 0 
0 0 0 0 0 0 0 0 0 
0 0 0 0 0 0 0 0 0 
0 0 0 0 0 0 0 0 0 
0 0 0 0 0 0 0 0 0 
0 0 0 0 0 0 0 0 0 
0 0 0 0 0 0 0 0 0 
0 0 0 0 0 0 0 0 0 
0 0 0 0 0 0 0 0 0 
0 0 0 0 0 0 0 0 0 
0 0 0 0 0 0 0 0 0 
0 0 0 0 0 0 0 0 0 
0 0 0 0 0 0 0 0 0 
0 0 0 0 0 0 0 0 0 
0 0 0 0 0 0 0 0 0 
0 0 0 0 0 0 0 0 0 
0 0 0 0 0 0 0 0 0 
0 0 0 0 0 0 0 0 0 
0 0 0 0 0 0 0 0 0 
0 0 0 0 0 0 0 0 0 
0 0 0 0 0 0 0 0 0 
0 0 0 0 0 0 0 0 0 
0 0 0 0 0 0 0 0 0 
0 0 0 0 0 0 0 0 0 
0 0 0 0 0 0 0 0 0 
0 0 0 0 0 0 0 0 0 
0 0 0 0 0 0 0 0 0 
0 0 0 0 0 0 0 0 0 
0 0 0 0 0 0 0 0 0 
0 0 0 0 0 0 0 0 0 
0 0 0 0 0 0 0 0 0 
0 0 0 0 0 0 0 0 0 
0 0 0 0 0 0 0 0 0 
0 0 0 0 0 0 0 0 0 
0 0 0 0 0 0 0 0 0 
0 0 0 0 0 0 0 0 0 
0 0 0 0 0 0 0 0 0 
0 0 0 0 0 0 0 0 0 
0 0 0 0 0 0 0 0 0 
0 0 0 0 0 0 0 0 0 
0 0 0 0 0 0 0 0 0 
0 0 0 0 0 0 0 0 0 
0 0 0 0 0 0 0 0 0 
0 0 0 0 0 0 0 0 0 
0 0 0 0 0 0 0 0 0 
0 0 0 0 0 0 0 0 0 
0 0 0 0 0 0 0 0 0 
0 0 0 0 0 0 0 0 0 
0 0 0 0 0 0 0 0 0 
0 0 0 0 0 0 0 0 0 
0 0 0 0 0 0 0 0 0 
0 0 0 0 0 0 0 0 0 
0 0 0 0 0 0 0 0 0 
0 0 0 0 0 0 0 0 0 
0 0 0 0 0 0 0 0 0 
0 0 0 0 0 0 0 0 0 
0 0 0 0 0 0 0 0 0 
0 0 0 0 0 0 0 0 0 
0 0 0 0 0 0 0 0 0 
0 0 0 0 0 0 0 0 0 
0 0 0 0 0 0 0 0 0 
0 0 0 0 0 0 0 0 0 
0 0 0 0 0 0 0 0 0 
0 0 0 0 0 0 0 0 0 
0 0 0 0 0 0 0 0 0 
0 0 0 0 0 0 0 0 0 
0 0 0 0 0 0 0 0 0 
0 0 0 0 0 0 0 0 0 
0 0 0 0 0 0 0 0 0 
0 0 0 0 0 0 0 0 0 
0 0 0 0 0 0 0 0 0 
0 0 0 0 0 0 0 0 0 
0 0 0 0 0 0 0 0 0 
0 0 0 0 0 0 0 0 0 
0 0 0 0 0 0 0 0 0 
0 0 0 0 0 0 0 0 0 
0 0 0 0 0 0 0 0 0 
0 0 0 0 0 0 0 0 0 
0 0 0 0 0 0 0 0 0 
0 0 0 0 0 0 0 0 0 
0 0 0 0 0 0 0 0 0 
0 0 0 0 0 0 0 0 0 
0 0 0 0 0 0 0 0 0 
0 0 0 0 0 0 0 0 0 
0 0 0 0 0 0 0 0 0 
0 0 0 0 0 0 0 0 0 
0 0 0 0 0 0 0 0 0 
0 0 0 0 0 0 0 0 0 
0 0 0 0 0 0 0 0 0 
0 0 0 0 0 0 0 0 0 
0 0 0 0 0 0 0 0 0 
0 0 0 0 0 0 0 0 0 
0 0 0 0 0 0 0 0 0 
0 0 0 0 0 0 0 0 0 
0 0 0 0 0 0 0 0 0 
0 0 0 0 0 0 0 0 0 
0 0 0 0 0 0 0 0 0 
0 0 0 0 0 0 0 0 0 
0 0 0 0 0 0 0 0 0 
0 0 0 0 0 0 0 0 0 
0 0 0 0 0 0 0 0 0 
0 0 0 0 0 0 0 0 0 
0 0 0 0 0 0 0 0 0 
0 0 0 0 0 0 0 0 0 
0 0 0 0 0 0 0 0 0 
0 0 0 0 0 0 0 0 0 
0 0 0 0 0 0 0 0 0 
0 0 0 0 0 0 0 0 0 
0 0 0 0 0 0 0 0 0 
0 0 0 0 0 0 0 0 0 
0 0 0 0 0 0 0 0 0 
0 0 0 0 0 0 0 0 0 
0 0 0 0 0 0 0 0 0 
0 0 0 0 0 0 0 0 0 
0 0 0 0 0 0 0 0 0 
0 0 0 0 0 0 0 0 0 
0 0 0 0 0 0 0 0 0 
0 0 0 0 0 0 0 0 0 
0 0 0 0 0 0 0 0 0 
0 0 0 0 0 0 0 0 0 
0 0 0 0 0 0 0 0 0 
0 0 0 0 0 0 0 0 0 
0 0 0 0 0 0 0 0 0 
0 0 0 0 0 0 0 0 0 
0 0 0 0 0 0 0 0 0 
0 0 0 0 0 0 0 0 0 
0 0 0 0 0 0 0 0 0 
0 0 0 0 0 0 0 0 0 
0 0 0 0 0 0 0 0 0 
0 0 0 0 0 0 0 0 0 
0 0 0 0 0 0 0 0 0 
0 0 0 0 0 0 0 0 0 
0 0 0 0 0 0 0 0 0 
0 0 0 0 0 0 0 0 0 
0 0 0 0 0 0 0 0 0 
0 0 0 0 0 0 0 0 0 
0 0 0 0 0 0 0 0 0 
0 0 0 0 0 0 0 0 0 
0 0 0 0 0 0 0 0 0 
0 0 0 0 0 0 0 0 0 
0 0 0 0 0 0 0 0 0 
0 0 0 0 0 0 0 0 0 
0 0 0 0 0 0 0 0 0 
0 0 0 0 0 0 0 0 0 
0 0 0 0 0 0 0 0 0 
0 0 0 0 0 0 0 0 0 
0 0 0 0 0 0 0 0 0 
0 0 0 0 0 0 0 0 0 
0 0 0 0 0 0 0 0 0 
0 0 0 0 0 0 0 0 0 
0 0 0 0 0 0 0 0 0 
0 0 0 0 0 0 0 0 0 
0 0 0 0 0 0 0 0 0 
0 0 0 0 0 0 0 0 0 
0 0 0 0 0 0 0 0 0 
0 0 0 0 0 0 0 0 0 
0 0 0 
v 3 538 double
-0.00996536 0.00269923 -1.0983e-05 0.0203685 -5.63977e-05 0.000192532 0.00216315 0.00594164 -0.000213049 
0.00484463 -0.00554423 -4.94743e-05 -7.07148e-05 -0.000256279 1.67969e-06 0.00291191 0.0241386 2.1364e-05 
0.000490174 0.000957243 0.000412367 0.00196866 0.0014674 0.00113435 0.00432976 0.00015941 -9.11901e-05 
-0.000882455 0.000185572 -0.000521979 0.0205818 0.00327061 2.42361e-05 0.000102236 -0.000117483 0.000162132 
-0.0118154 0.0185561 0.000183883 -2.13455e-05 0.000963844 -0.000128874 -1.29174e-05 0.000109523 0.000257608 
0.013126 -0.00174476 5.21967e-05 0.0227435 2.94534e-05 -0.00243033 0.00100066 0.00123562 0.00246029 
0.0141975 -0.011155 1.54176e-05 0.00637172 -0.00595387 0.00279014 0.0248598 -0.0177223 -0.0232167 
-0.0300915 -0.0353131 -0.00611376 1.49171e-05 -0.00918283 -0.0059086 0.102126 -0.0519474 -0.0423496 
0.00129809 0.00173057 -6.83565e-06 3.45004e-05 -0.00361255 -0.00248033 0.0118838 0.0425884 -0.00723286 
-0.00603202 -0.0496372 -0.0113414 -0.00012432 2.03983e-05 -0.00153694 0.144036 2.25313e-06 -0.0531844 
-0.000141733 -0.183708 -0.110598 0.0722675 -0.210839 -0.000154413 0.0638719 0.0838601 -0.0380001 
-0.00776695 0.0152309 -0.0169191 -0.00679449 0.00558257 8.30773e-12 0.000612425 -0.000330825 -0.000146179 
-0.0113146 0.00225917 -0.000318632 -0.0136581 0.00948104 2.67043e-05 -0.00818151 0.00420219 2.28632e-05 
-0.00535535 -0.00547116 2.58977e-06 -0.00865166 -0.000482082 0.00296509 0.000549927 -3.61034e-06 -6.86882e-05 
-0.00804569 0.00418952 -8.25761e-06 -0.0101551 0.000282076 -0.00101421 -0.013223 0.00944492 2.5759e-05 
-0.0133139 0.000378835 0.000106999 -0.0123743 -5.80282e-05 -0.000263041 -0.00332745 0.039347 -0.000129374 
0.0328361 0.00862194 -0.0243094 -0.029274 0.0127401 -1.12413e-11 -0.0493106 0.0174417 -0.0208091 
-0.010709 0.00248359 0.000110803 0.0087568 -0.0221942 -2.03624e-05 -0.000374285 0.0176206 -4.08732e-06 
7.17445e-05 -0.0377232 8.28162e-05 -2.38656e-05 0.0385916 -0.00535247 -0.000136696 -0.0255596 0.0063981 
0.12039 0.061023 -0.0548437 -0.0287971 0.00321701 0.00799232 0.0229271 0.0105549 -5.21421e-05 
-0.0309095 0.0132444 0.0272448 0.0426209 -0.0597401 -0.366667 0.0110281 -0.00714456 -0.00016486 
0.00241399 0.0065537 0.000292761 0.0224548 0.0280358 -3.0365e-05 -0.000615945 -0.0104407 -0.000326129 
0.0256985 -0.00700029 0.011537 0.00976962 -0.00684721 -9.80043e-05 -8.06722e-05 -0.00916145 -7.49417e-05 
0.0145011 -0.00665763 0.000135573 0.00880926 0.00258827 -0.000738292 0.000106515 0.00846279 -1.05508e-11 
-0.00894587 -0.0378304 0.000356508 0.00789241 0.0167833 -1.46709e-05 6.15425e-05 -0.122504 -0.0507988 
0.00890206 -0.00193231 8.64357e-05 -0.0847624 -0.0381593 0.00914568 8.23313e-05 -0.113295 0.0703925 
-0.0890743 0.0327188 -0.0522101 -0.142566 -0.089408 -0.171618 0.0588591 -0.0423273 1.26387e-05 
0.0300506 -0.0376056 -0.0112716 0.0123597 0.000423282 -0.000442439 0.013077 0.132858 -0.0642213 
0.0206199 -0.0158786 -1.18852e-11 0.0179232 0.00435697 0.0121249 0.0258663 -0.0453353 -1.5472e-06 
9.6042e-05 -0.00370692 0.0156449 0.000509106 -0.0823142 0.0102439 -0.0351821 -0.0738327 -0.00621735 
0.0557045 -0.00793898 -0.00936978 0.0244094 0.00665764 1.44302e-05 0.0160569 0.00986703 0.00894652 
0.00226239 -0.00583423 -0.00012957 0.0316303 0.0294932 -0.00103216 -0.0175531 -0.0070132 -1.921e-06 
-0.0426663 -0.0233695 -2.4894e-05 0.0406134 0.0527461 0.000190765 -8.46918e-05 -0.0290614 -0.000187951 
-0.0825016 -0.0138473 1.33612e-11 -0.0128894 -0.00635467 4.72788e-05 0.0261693 -0.0206174 0.000122819 
-0.000450866 -0.0289565 -2.09914e-05 0.00522776 0.0377058 3.75361e-05 8.90246e-06 -0.0526078 0.00755627 
-0.0193226 0.0531641 -0.000280989 0.10226 -0.039737 0.00528405 -2.6663e-05 0.0428068 -0.0154938 
-0.0775817 0.0499533 -0.0699029 0.0713805 -0.0180197 -0.0403837 -0.015587 -0.145217 -0.0752068 
0.000716948 -0.0222895 -0.0349138 0.112402 -0.199251 -0.149821 0.000170815 0.0405795 -0.0385795 
-0.129153 -0.111199 -0.249509 -0.0186521 -0.0523001 0.000140369 0.0101013 -0.00149423 -0.00109901 
-0.0337316 -0.0449412 0.00737495 0.0604254 -0.0346476 -0.000144728 0.0120334 -0.00646092 0.0106195 
-0.000397434 0.0155871 -0.00051055 0.0149807 0.00404317 0.000233704 0.0375617 -0.0375732 8.77993e-05 
-0.00146641 7.01748e-05 8.02747e-12 0.00161493 0.0348827 -7.4612e-07 0.0349999 0.00184682 0.000630663 
-0.000463764 0.0201792 -0.000192943 0.00078001 0.0347161 -8.7958e-05 -0.0576411 -0.0189008 0.000378708 
0.0389062 0.0359308 -0.000417833 0.0155586 -0.00755809 -2.46623e-06 0.0191541 -0.00547565 -0.000429889 
-0.113483 0.0765713 -0.0527584 -0.018649 0.0137086 -1.40667e-11 -0.0144618 -0.1237 0.0162322 
0.0515762 0.125388 -0.000297745 -0.0977537 0.0491143 -0.0477926 0.0201717 -0.0041324 0.000222787 
0.0115458 -0.000147868 -0.12874 0.0378086 -0.000729723 -0.000128929 0.00818358 0.0393541 -0.170791 
0.0375224 -0.114778 0.0263179 -0.00768336 -0.033898 -0.130182 -0.145886 0.037302 -0.11219 
-0.091077 0.0801437 0.0242779 -0.0813882 0.15414 -0.10816 0.0226483 -0.00703301 -0.00458298 
0.0172181 0.0102752 -1.44827e-11 -0.0109906 0.0143132 0.00014825 0.132192 -0.000791668 -0.0464713 
0.00732882 0.0026378 5.53839e-12 -0.00252182 0.0371388 0.00103721 0.00467709 -0.027304 0.000162467 
0.0395502 0.0677112 -0.028778 0.104554 0.0179531 -0.0729632 0.0147206 -0.0404879 -0.0106929 
0.00965319 -0.00511375 -2.46059e-05 -0.122201 0.0589446 0.000364053 -0.141446 -0.0253261 -0.00107193 
-7.2996e-05 -0.00220841 5.42531e-12 -0.00193432 0.0153055 -3.25471e-07 -0.0239692 0.0456457 2.42439e-06 
-0.0825607 0.0238574 -0.00942242 0.00180911 -0.00933514 0.00343742 -0.064583 -0.021213 0.000291664 
6.4765e-05 -0.000754133 1.6917e-11 -0.000516495 -0.0029923 1.17655e-11 0.00693217 -0.00274485 -1.57474e-05 
-0.00401997 -0.00843973 -0.000946638 0.00773952 0.0063516 2.23466e-12 -0.00226525 -0.0111156 -0.0004401 
0.00115243 0.00062341 0.00257891 -0.0641202 0.00999772 -0.0419425 0.000495221 -0.006376 0.000810423 
-0.0394894 -7.19443e-05 1.33612e-11 -0.0159568 -0.00627313 0.00295536 -0.192434 -0.093668 -0.148208 
0.000779157 -0.0867683 -0.00977854 -0.0348259 -0.103626 0.0706286 -0.000151164 -0.00380443 0.00356987 
4.18823e-05 0.00947413 -0.00078377 0.00898024 0.00768391 -0.000115393 0.0129738 0.00721622 -0.000319543 
0.0134313 0.000222395 -2.84834e-05 -0.0241734 -0.0741101 0.000113247 -0.0201829 0.0262024 -8.66457e-05 
0.00753242 -0.00994323 4.1782e-05 0.00120627 -0.111585 0.0022483 -0.0212847 -0.00450574 -0.000403959 
0.00215482 -0.00817381 0.000241541 0.0101912 0.00353928 9.1847e-05 -0.00429277 -0.00967524 -0.000191609 
-0.0183892 -0.00931482 -1.50028e-06 0.0298597 -0.0221868 -0.0792191 -0.0563716 0.0742264 -0.0133913 
-0.0230997 -0.00761044 0.000244064 0.0309673 -0.0779651 -0.00672391 -0.0294018 -0.0538035 0.0871143 
0.0256034 0.00650653 -0.0070839 0.00634622 -0.0269256 -0.00219173 -0.00107919 0.00253324 5.89397e-12 
-9.15509e-06 0.0293308 0.0374659 0.0352393 0.0589298 -0.0308068 -0.0127062 0.0126167 -0.000322047 
-0.0957051 0.200564 -0.282512 6.94626e-05 -0.0420509 -0.00787811 0.0842861 0.0229091 -0.0430828 
0.0187844 -0.0274326 0.000134114 0.0125039 0.0107211 0.000630957 0.00622415 -0.0104056 0.000670654 
0.0117506 -0.0101617 -0.000246159 -0.000185739 0.0179851 0.0135621 0.20111 0.0633775 -0.224974 
-0.00638179 -0.017372 0.002612 -0.00812884 0.00741982 8.0124e-05 0.157188 -0.17986 -3.70108e-05 
-0.00617824 -0.0365365 0.00349012 0.0336969 -0.0499312 -0.048669 -0.0185954 -0.00807828 -0.00337959 
-0.0431881 -0.0103634 -0.0318825 0.00162712 -0.0626912 -0.00103496 0.0209034 -0.0222991 9.58985e-09 
-0.00309241 -0.0365671 -0.00295918 -0.0520472 -0.016289 -1.09337e-05 0.0191396 -0.0120192 0.00182909 
0.0369217 -0.0370245 0.000399585 -8.85657e-05 -0.00534193 0.000241369 -0.0558272 -0.0244542 0.00202925 
0.0443105 -0.0120183 -8.77615e-05 0.0165588 0.0354516 -5.25338e-05 -0.000173978 0.00269021 0.000122725 
0.0497783 -0.0194734 -0.0330076 0.0245908 -0.0235427 0.000262061 0.0443727 0.00514324 0.00506903 
0.04428 -0.00194867 8.91878e-05 0.00061208 0.00273982 -0.000610933 -0.0279653 -0.00633533 -0.0298476 
0.0579783 -0.0599566 -0.0112312 0.000612769 -0.000400679 -8.08037e-12 0.121316 -0.0183561 -0.0708045 
0.0232639 0.044045 0.0225251 0.0834901 0.105892 0.0127145 -0.0164662 0.0357996 -0.000422688 
4.36274e-05 -0.00496981 -0.000314362 -0.000212618 0.0245516 -0.0203349 0.000156191 0.0294674 1.99091e-05 
-0.000108428 0.0187796 0.000309634 -0.0291355 0.00857042 -1.19655e-05 0.000809192 0.0195349 0.000885263 
-0.00814162 0.00608401 -4.06234e-12 0.0040291 -0.00796598 -0.000134128 -0.0175782 0.00610809 -0.00027427 
0.00806679 0.0156096 0.00030225 0.000817466 -0.0103288 -8.60101e-05 -0.0156097 0.0141857 0.000221555 
-0.0383046 0.0524821 9.80704e-12 -0.00353852 -0.0120674 -0.00107493 -0.00830083 0.0153402 -8.53945e-12 
-0.000184022 -0.00874155 -0.000273909 0.00385364 -0.00941452 0.000519405 -0.00786703 0.0200008 0.00273816 
0.0102877 -0.0449809 -0.0636962 0.0013911 -0.0134971 0.0062628 -0.0198494 -0.00970329 -0.00681429 
0.00815338 -0.00361818 0.0023219 -0.00158085 0.0152638 -9.2029e-12 -0.00268012 -0.0583064 -0.0267346 
0.113267 -0.0440856 -0.0397966 0.0401335 0.0236594 -7.61816e-12 0.0721398 -0.0188619 -0.0024493 
-0.0257229 -0.0284262 -0.00474583 -0.0130792 0.0450488 -1.81599e-05 0.00943573 0.00248215 -1.39659e-11 
-0.0001216 -0.01962 -0.0083803 0.0371306 0.010421 -0.0144163 0.0484734 -0.0573624 -1.54446e-06 
-0.000212853 -0.00481887 -8.81921e-05 0.00147783 0.00884034 0.000524029 0.0461286 -0.0504666 -6.01797e-05 
0.00692796 -0.0229066 -0.000103855 -0.0362223 -0.0330158 2.84374e-07 0.0212191 -0.00878847 5.41622e-07 
-0.0019942 0.0126231 3.19356e-12 -0.041258 0.0216338 2.66551e-05 -0.02565 -0.0854005 7.69088e-06 
-9.43052e-05 0.0409363 -0.0777262 0.000144973 -0.00442477 0.000100123 0.00504253 0.00675093 -0.000312036 
-0.0542703 0.00687832 -0.00847067 0.0103045 -0.024959 -0.00331382 0.0126841 -0.0257753 -0.000425804 
-0.00174733 -0.0115002 0.000297816 0.034898 -0.0370748 -0.0124384 0.106911 -0.0623301 0.0435995 
0.0104137 -0.0242428 -0.00212324 -0.0296811 -0.0108484 -0.0133984 0.0281193 0.0550768 -0.0133599 
0.0678587 -0.055771 -0.0198539 -0.0310003 0.0480815 0.00409626 0.0907598 -0.0521586 -0.00481706 
-0.00175078 -0.00665237 -6.12806e-05 -0.0244724 -0.0129056 -0.00278327 -0.0316063 0.00416379 -0.00419184 
-0.0177155 -0.0117713 0.00407214 0.00151878 -0.0050967 4.95845e-05 0.00289203 -0.007002 -9.53741e-06 
0.000532235 -0.00632486 -0.00157661 2.91966e-05 -0.00997456 -0.000236211 -0.000667738 -0.00579044 -0.0043963 
-0.00222488 -0.00701106 0.000201308 -3.95419e-05 -0.00967681 -4.7009e-05 0.00763252 0.0229004 -0.174641 
1.6127e-06 -0.00937884 4.82433e-05 -0.00486968 -0.00888624 0.000175663 -0.00292018 -0.00440067 -0.000102622 
-0.00283697 -0.00663491 -0.000303049 -0.0372481 -0.0103944 -6.38142e-05 -0.000221405 -0.00414585 -0.000179572 
-0.00137712 -0.00716204 -0.00020113 -0.0124233 0.00874592 -0.000755455 -0.0192849 0.00710507 -0.000122864 
-0.181403 -0.0467052 -0.128679 -0.000362044 -0.0118094 0.000312999 -0.00126891 0.00821794 0.00868708 
0.140595 0.0113875 -0.127162 -0.0390793 0.0971747 -0.0252942 -0.00547557 -0.0171078 -0.00712295 
-0.0325746 0.0341188 -1.00919e-11 0.0130986 0.023807 -0.000302819 -9.12967e-07 0.12809 -0.0437913 
0.0688064 0.00936813 -0.0360652 0.102729 -0.0128808 -0.196907 -0.0122195 -0.0233475 3.19871e-05 
0.000333391 -0.0202793 -0.00459172 0.0202999 -0.016203 -0.239019 -0.0139249 -0.0296099 -0.0395315 
0.00317245 0.00723325 0.000128162 0.0107169 0.00741207 -1.56797e-05 0.0630097 0.0529293 1.0023e-11 
-0.0129957 -0.0092366 5.04308e-05 0.000805025 -0.0126098 0.000201162 -0.0302858 -0.0121049 -0.000157851 
-7.50849e-06 -0.0327838 -0.000108861 0.00189781 -0.0321087 0.000181321 -0.0165359 0.0326965 0.000137188 
0.0997051 -0.194355 0.000241342 -0.0351456 -0.0121793 2.08707e-05 -4.17932e-05 0.00187334 -0.000492693 
0.000449782 0.00150252 -9.35022e-05 -0.0308138 -0.0202453 -0.00018487 -0.0117581 0.000802437 -0.000101732 
-0.0654142 0.0305867 0.00186147 -0.0210166 -0.0277219 0.00714827 -0.00189357 -0.0235513 0.0120654 
-0.0868357 0.0835944 -0.122803 0.0465183 0.0116079 0.00902665 -0.0542415 -0.0784404 0.0875968 
-0.00605083 0.0234898 -0.13348 4.9416e-06 -0.0123023 0.000116221 -0.000181939 -5.31014e-05 -1.50931e-13 
-0.0176446 0.00411699 -0.0286329 -0.0287179 0.0308636 0.0189807 0.0112163 0.0393943 -0.0425694 
1.26679e-05 0.0742488 -0.106986 -0.0106721 -0.0365933 -0.00120112 0.00342977 -0.00267488 -3.16512e-06 
0.0116156 -0.000710029 -0.0219969 -0.00600305 0.0119372 9.91268e-05 0.000101538 -0.030789 0.000930968 
0.00139109 -0.00727522 0.000157274 -0.0141596 0.00481068 -0.000303774 -0.00942148 -0.0253971 -0.000296625 
-0.0252241 0.020393 0.000163454 -0.0232338 -0.00941736 -0.000136506 8.37937e-05 -0.0124831 0.000267398 
0.00799163 0.0132739 6.84991e-05 -0.0102471 -0.0218565 7.79713e-06 0.00871281 -0.0062477 0.000320656 
-0.0125575 -0.0272793 0.000519451 0.00012917 -0.00227063 -1.15767e-11 0.0119874 0.0279676 -0.00224096 
-0.000404359 -0.0307661 0.000210692 0.0675287 0.00149743 -0.0799379 0.0692317 0.0165559 -0.172711 
0.000152465 -0.0106435 0.00290954 -0.0248302 0.0208652 0.000118829 0.151184 0.124679 -0.204884 
-0.0419019 -0.0789298 -0.00338529 0.112692 -0.101748 -0.1533 0.0788362 -0.0674538 -0.124654 