# vtk DataFile Version 4.0
Generated by LIGGGHTS
ASCII
DATASET POLYDATA
POINTS 538 float
0.0101645 0.00458415 0.0116574 0.00412309 0.00438236 0.0108755 0.00639209 0.00213945 0.0121393 
0.00310224 0.00662342 0.0116573 0.000677944 0.00743659 0.0106779 0.00686718 0.00652328 0.0121393 
0.00216643 0.00344751 0.0106779 0.00421781 0.000770567 0.0107705 0.000770769 0.00599413 0.0107704 
0.0021977 0.00145877 0.0114587 0.00566309 0.00443598 0.010678 0.00388684 0.0027565 0.0107705 
0.00793897 0.00418946 0.0107705 0.000770446 0.00302687 0.0107704 0.000770469 0.000770482 0.0130268 
0.00118689 0.00451047 0.0107705 0.00262142 0.000994472 0.0138301 0.000875508 0.00313107 0.0124097 
0.00269604 0.00461176 0.0105965 0.00251018 0.00409226 0.0121822 0.00439881 0.00457309 0.0130304 
0.00830361 0.00414994 0.01332 0.00099444 0.00649387 0.0132614 0.00347898 0.00266304 0.0131695 
0.00986498 0.00148863 0.0114587 0.000770483 0.0051939 0.0120873 0.0102562 0.00755836 0.0124959 
0.00243125 0.00518428 0.0136981 0.00879899 0.00087547 0.0134428 0.011472 0.00099448 0.0132454 
0.000770501 0.00442439 0.0134224 0.00957549 0.00692029 0.0108754 0.0114358 0.00684856 0.0137615 
0.0120264 0.00577439 0.0126631 0.0120269 0.0059126 0.0107705 0.0125945 0.00128395 0.0112839 
0.0151966 0.00617597 0.01113 0.0224454 0.00366262 0.0114587 0.0165501 0.00399365 0.0114587 
0.0192388 0.00450669 0.0112839 0.0228699 0.00113003 0.01113 0.0145163 0.000770446 0.0107704 
0.0160225 0.00193995 0.0107704 0.0208881 0.000875499 0.0108754 0.0215733 0.00552719 0.010678 
0.0167274 0.000677953 0.010678 0.0186074 0.00165817 0.0116574 0.0228699 0.00781992 0.01113 
0.0166032 0.00770879 0.0123549 0.0171917 0.00624964 0.0108755 0.0226715 0.00628115 0.0127735 
0.0134406 0.00407624 0.0116574 0.0198328 0.0071787 0.0114587 0.0230055 0.00192365 0.0130961 
0.0231245 0.00581844 0.0108754 0.0230055 0.00441197 0.0137266 0.0209955 0.00531397 0.012246 
0.0150474 0.00164111 0.0127527 0.0214578 0.00087549 0.0125311 0.013013 0.008111 0.011883 
0.0200638 0.000994484 0.0137719 0.00898184 0.00907641 0.0112839 0.00469558 0.012161 0.0112839 
0.00794519 0.0142771 0.0121393 0.00633468 0.00887249 0.0106779 0.00425928 0.0150507 0.0116573 
0.0111369 0.0108442 0.0114587 0.00442739 0.00943691 0.0114587 0.00113002 0.0118115 0.01113 
0.00146089 0.00926499 0.0114588 0.00829926 0.0118818 0.010678 0.000770474 0.0136428 0.0107704 
0.00192339 0.0156408 0.0108754 0.00966162 0.0123671 0.0107704 0.0011321 0.0145811 0.0123831 
0.00687721 0.0106579 0.0112839 0.0102406 0.0093544 0.0130164 0.000677982 0.0128387 0.0125475 
0.00351293 0.0110625 0.0130524 0.00882133 0.0110593 0.0129128 0.0113406 0.0132445 0.0109944 
0.00265689 0.0128933 0.0123974 0.00612045 0.0118943 0.0130417 0.003134 0.0170671 0.0132189 
0.0107058 0.00797953 0.010678 0.00453635 0.0130499 0.0133757 0.0107308 0.015145 0.0109944 
0.000525035 0.0157451 0.0108721 0.000770482 0.0161545 0.0133859 0.0113466 0.014205 0.0125988 
0.0177928 0.00930079 0.0128104 0.015547 0.00925222 0.0109944 0.0161305 0.00989587 0.0127848 
0.0173444 0.0153928 0.0112839 0.0141887 0.011443 0.0116574 0.0205976 0.0107063 0.0109944 
0.0153743 0.0164027 0.0108754 0.0181405 0.00911013 0.01113 0.0221274 0.0125673 0.0114587 
0.018956 0.0106593 0.010678 0.0212342 0.00895208 0.0108754 0.0168884 0.0109917 0.01113 
0.0228698 0.0100955 0.01113 0.0204504 0.0155503 0.011883 0.0159679 0.014453 0.0126569 
0.0188525 0.0126459 0.0114587 0.016297 0.013195 0.01113 0.0230055 0.013712 0.013443 
0.0125061 0.0104649 0.0134588 0.0142962 0.0158246 0.0137195 0.0203583 0.0110811 0.013407 
0.0231222 0.0146439 0.0109978 0.0148877 0.0132363 0.013304 0.0232295 0.0152396 0.01253 
0.0144307 0.0097843 0.0135563 0.0136552 0.0147148 0.0116574 0.0230056 0.0165307 0.0109944 
0.00136282 0.0172342 0.0122901 0.00628193 0.0166739 0.0109944 0.0101062 0.0168969 0.0133283 
0.000770483 0.0170133 0.0107704 0.00624675 0.024008 0.0114587 0.00305023 0.0197566 0.0109944 
0.00825961 0.0246099 0.010678 0.00128582 0.0212618 0.0112839 0.00693023 0.0213034 0.0108753 
0.00408601 0.0223276 0.0112839 0.00113008 0.0188575 0.01113 0.00240403 0.0173245 0.0108755 
0.00525955 0.0202238 0.0111299 0.00995272 0.0201252 0.0107704 0.0104076 0.0185447 0.0108755 
0.00289153 0.0231167 0.0134157 0.00900949 0.0166559 0.0107705 0.000770477 0.0231831 0.0107704 
0.00598818 0.0217669 0.0124227 0.00304963 0.0208392 0.0126629 0.00786587 0.0189119 0.011883 
0.00442595 0.0179635 0.0112839 0.0092395 0.0224263 0.011883 0.00473344 0.0194503 0.0133552 
0.000994446 0.0238502 0.0123889 0.00520419 0.0169255 0.0128769 0.00443089 0.0217658 0.0132533 
0.00478627 0.0232901 0.0128435 0.00876718 0.024131 0.0137352 0.00803473 0.0246759 0.0126106 
0.0110225 0.0245028 0.0109944 0.00294436 0.0246278 0.0112839 0.0111484 0.0245487 0.0131147 
0.0116744 0.0229508 0.010678 0.000875466 0.0250926 0.0108754 0.0119268 0.0170653 0.0112838 
0.015936 0.0167753 0.0129269 0.012328 0.0187099 0.0124479 0.0133251 0.0168859 0.0129196 
0.0171784 0.0178024 0.01113 0.0137627 0.0224011 0.0109944 0.0149701 0.024051 0.0109944 
0.0231238 0.0228063 0.0108755 0.0194333 0.0187874 0.0112839 0.0120634 0.0206902 0.0114587 
0.0155687 0.022933 0.0126988 0.018174 0.021793 0.0107705 0.0171419 0.0233481 0.01113 
0.018758 0.0170478 0.0106779 0.0233361 0.0213762 0.0105965 0.0223424 0.0190114 0.0116574 
0.0143048 0.0184206 0.0114588 0.0162641 0.0216788 0.0107705 0.0161921 0.0193866 0.0107703 
0.0205672 0.0220724 0.011883 0.0145649 0.0209208 0.012171 0.0231245 0.0169029 0.0128231 
0.0140297 0.0203905 0.0106779 0.017311 0.0204838 0.0129115 0.0145371 0.0217248 0.013742 
0.0176746 0.0250571 0.0128718 0.0181773 0.0232392 0.0129819 0.0231246 0.0212598 0.0125226 
0.0230056 0.0230503 0.013057 0.00936589 0.0264688 0.0116574 0.0094574 0.0287275 0.0107704 
0.00746856 0.0286914 0.0112839 0.00853802 0.0322424 0.01113 0.00128394 0.0319805 0.0112839 
0.00330402 0.0271704 0.0112839 0.000994453 0.0271961 0.0109944 0.00534991 0.0287786 0.0108754 
0.00598011 0.0312008 0.0116574 0.00583096 0.0267134 0.0112839 0.0106533 0.0314462 0.01113 
0.00901454 0.0303109 0.0108754 0.00165745 0.0293082 0.0124546 0.00438829 0.0256697 0.0131342 
0.00380854 0.0298306 0.0109944 0.0045523 0.0288573 0.0127302 0.00141716 0.0259174 0.0126374 
0.00331412 0.0312023 0.0121652 0.00710657 0.0261987 0.0132676 0.00739696 0.0256562 0.010678 
0.000770475 0.02739 0.01365 0.00240806 0.0332331 0.0119471 0.00344096 0.0326548 0.0109944 
0.0092928 0.0293953 0.0123417 0.000596483 0.0312518 0.0128753 0.0122194 0.0315589 0.0129636 
0.011711 0.0288984 0.0116574 0.00746776 0.0333821 0.0122179 0.00695943 0.0332378 0.0107704 
0.0116194 0.0266402 0.0107703 0.000875464 0.0334951 0.0127678 0.0191586 0.0256664 0.0130734 
0.012133 0.0308654 0.010525 0.0222627 0.0251768 0.0116574 0.0130072 0.024372 0.0109944 
0.0168335 0.0255872 0.01113 0.0127279 0.0262512 0.0124557 0.0202139 0.0260797 0.0123217 
0.0153246 0.025179 0.0127625 0.0191195 0.0248249 0.0112839 0.0144535 0.0259717 0.0109944 
0.0157393 0.0274892 0.0109944 0.0179893 0.0277009 0.0112839 0.0144355 0.0291612 0.01113 
0.012936 0.0324532 0.0109944 0.0225412 0.0314123 0.0114587 0.0195537 0.0266685 0.010678 
0.0151943 0.0316146 0.0114587 0.0196257 0.0315273 0.0114587 0.0234035 0.0268121 0.0105965 
0.0164419 0.0293359 0.0121557 0.0134201 0.0273898 0.0107705 0.0185676 0.0295223 0.0120542 
0.0173787 0.0317684 0.010678 0.0233081 0.0280814 0.010678 0.0210007 0.0284772 0.011883 
0.0134174 0.0304844 0.0118242 0.0176825 0.0302546 0.0108754 0.0174016 0.031218 0.0124532 
0.0143341 0.0275868 0.0121898 0.0194811 0.03288 0.0133556 0.0198318 0.0336383 0.0107704 
0.023322 0.0331098 0.0124955 0.0232295 0.0272098 0.0125669 0.000994931 0.0342379 0.0109944 
0.00087548 0.0361014 0.0108754 0.00274545 0.0342656 0.0107705 0.000875469 0.0378524 0.0108754 
0.00602054 0.0354206 0.010678 0.0114797 0.0406452 0.0121393 0.00779808 0.0349052 0.01113 
0.00692325 0.0374989 0.0116573 0.00385879 0.0362347 0.0116574 0.00673739 0.0408118 0.0116573 
0.00930447 0.0365372 0.0109944 0.00395055 0.0393434 0.0114587 0.00947669 0.0385241 0.0109944 
0.00128394 0.0399623 0.0112839 0.00519503 0.0338458 0.01113 0.00128557 0.0356085 0.0129374 
0.0104612 0.0342112 0.0116574 0.00490084 0.0380551 0.0134933 0.00478887 0.0405706 0.013636 
0.00192916 0.038026 0.012573 0.00924224 0.0401654 0.0105965 0.00863973 0.0392568 0.012974 
0.0061664 0.035165 0.0122869 0.00919849 0.0414477 0.010678 0.012881 0.0343185 0.0108754 
0.0025799 0.0407095 0.0131785 0.0174562 0.034038 0.011883 0.0147172 0.0339842 0.0109944 
0.0212303 0.0334524 0.0118309 0.0136358 0.0390137 0.0134733 0.0179525 0.0367395 0.0109944 
0.0230055 0.033776 0.0109944 0.0128904 0.0368864 0.011883 0.0154558 0.0379027 0.0109944 
0.0140109 0.0410779 0.0107704 0.0196435 0.0389815 0.011883 0.0203055 0.0357333 0.0114587 
0.0232295 0.0402877 0.0107705 0.015463 0.0359137 0.0109944 0.0171606 0.0383009 0.0107705 
0.0226931 0.0382944 0.0112839 0.0228699 0.0358918 0.01113 0.0178971 0.0408644 0.0108754 
0.0223562 0.0402571 0.0129052 0.0146475 0.0396627 0.0118677 0.0161906 0.039499 0.0107704 
0.0159703 0.0413598 0.01113 0.0170621 0.0399301 0.0120985 0.0152864 0.0372719 0.0124452 
0.0142541 0.0413327 0.0126854 0.0058219 0.0492655 0.0120874 0.00337271 0.0500168 0.0134078 
0.00771849 0.0425501 0.0132167 0.00310882 0.0449887 0.0125683 0.00859062 0.0485035 0.0125088 
0.00585434 0.0477207 0.0127275 0.00941653 0.0464251 0.0122629 0.00470269 0.0435443 0.0128281 
0.00663765 0.0436392 0.0121182 0.00279266 0.0462261 0.0109944 0.0105889 0.0479093 0.0114587 
0.00144197 0.0455034 0.0123003 0.000875459 0.0465737 0.0108754 0.00128498 0.0480956 0.0123515 
0.00370399 0.0444561 0.0109944 0.00077046 0.0449345 0.0107704 0.00707576 0.0494396 0.0109944 
0.00165963 0.0428566 0.0116574 0.0111912 0.0446492 0.011883 0.0084257 0.045579 0.01113 
0.00585809 0.045621 0.0114587 0.00791737 0.0476374 0.0109944 0.00386225 0.0483847 0.0114587 
0.00606355 0.0478718 0.0108754 0.00845552 0.0431701 0.0112839 0.005604 0.0433289 0.0108754 
[...]
POINT_DATA 538
FIELD FieldData 7
id 1 538 int
1 2 3 4 5 6 7 8 9 
10 11 12 13 14 15 16 17 18 
19 20 21 22 24 25 26 29 31 
33 34 35 38 39 45 55 56 57 
58 59 60 61 62 63 64 65 66 
67 68 69 70 71 72 73 76 77 
80 81 82 85 90 95 96 106 107 
108 109 110 111 112 113 114 115 116 
117 118 119 120 121 122 124 126 128 
129 131 132 133 134 141 144 155 162 
163 164 165 166 167 168 169 170 171 
172 173 174 175 176 177 178 179 181 
184 187 190 191 192 194 197 198 200 
219 220 222 223 224 225 226 227 228 
229 230 231 232 233 234 235 236 237 
238 239 240 241 242 244 245 248 250 
251 254 262 264 265 270 273 275 276 
279 283 284 285 286 287 288 289 290 
291 292 293 294 295 296 297 298 299 
300 301 302 303 305 306 308 309 310 
317 330 331 332 333 334 335 336 337 
338 339 340 341 342 343 344 346 347 
348 349 351 353 357 359 362 366 368 
375 376 379 380 382 385 386 387 388 
389 390 391 392 393 394 395 396 397 
398 399 400 401 402 403 404 405 406 
408 409 410 411 413 415 416 417 418 
419 421 435 436 437 439 440 441 442 
443 444 445 446 447 448 449 450 451 
453 455 456 457 458 459 460 466 478 
479 497 498 499 500 501 502 503 504 
505 506 507 508 509 510 511 513 514 
515 516 517 522 523 524 535 486 487 
488 489 490 491 492 493 494 495 496 
512 518 519 520 521 525 526 527 528 
529 530 531 532 533 534 536 537 538 
438 452 454 461 462 463 464 465 467 
468 469 470 471 472 473 474 475 476 
477 480 481 482 483 484 485 355 356 
358 360 361 363 364 365 367 369 370 
371 372 373 374 377 378 381 383 384 
407 412 414 420 422 423 424 425 426 
427 428 429 430 431 432 433 434 266 
267 268 269 271 272 274 277 278 280 
281 282 304 307 311 312 313 314 315 
316 318 319 320 321 322 323 324 325 
326 327 328 329 345 350 352 354 207 
208 209 210 211 212 213 214 215 216 
217 218 221 243 246 247 249 252 253 
255 256 257 258 259 260 261 263 142 
143 145 146 147 148 149 150 151 152 
153 154 156 157 158 159 160 161 180 
182 183 185 186 188 189 193 195 196 
199 201 202 203 204 205 206 86 87 
88 89 91 92 93 94 97 98 99 
100 101 102 103 104 105 123 125 127 
130 135 136 137 138 139 140 23 27 
28 30 32 36 37 40 41 42 43 
44 46 47 48 49 50 51 52 53 
54 74 75 78 79 83 84 
type 1 538 int
1 1 1 1 1 1 1 1 1 
1 1 1 1 1 1 1 1 1 
1 1 1 1 1 1 1 1 1 
1 1 1 1 1 1 1 1 1 
1 1 1 1 1 1 1 1 1 
1 1 1 1 1 1 1 1 1 
1 1 1 1 1 1 1 1 1 
1 1 1 1 1 1 1 1 1 
1 1 1 1 1 1 1 1 1 
1 1 1 1 1 1 1 1 1 
1 1 1 1 1 1 1 1 1 
1 1 1 1 1 1 1 1 1 
1 1 1 1 1 1 1 1 1 
1 1 1 1 1 1 1 1 1 
1 1 1 1 1 1 1 1 1 
1 1 1 1 1 1 1 1 1 
1 1 1 1 1 1 1 1 1 
1 1 1 1 1 1 1 1 1 
1 1 1 1 1 1 1 1 1 
1 1 1 1 1 1 1 1 1 
1 1 1 1 1 1 1 1 1 
1 1 1 1 1 1 1 1 1 
1 1 1 1 1 1 1 1 1 
1 1 1 1 1 1 1 1 1 
1 1 1 1 1 1 1 1 1 
1 1 1 1 1 1 1 1 1 
1 1 1 1 1 1 1 1 1 
1 1 1 1 1 1 1 1 1 
1 1 1 1 1 1 1 1 1 
1 1 1 1 1 1 1 1 1 
1 1 1 1 1 1 1 1 1 
1 1 1 1 1 1 1 1 1 
1 1 1 1 1 1 1 1 1 
1 1 1 1 1 1 1 1 1 
1 1 1 1 1 1 1 1 1 
1 1 1 1 1 1 1 1 1 
1 1 1 1 1 1 1 1 1 
1 1 1 1 1 1 1 1 1 
1 1 1 1 1 1 1 1 1 
1 1 1 1 1 1 1 1 1 
1 1 1 1 1 1 1 1 1 
1 1 1 1 1 1 1 1 1 
1 1 1 1 1 1 1 1 1 
1 1 1 1 1 1 1 1 1 
1 1 1 1 1 1 1 1 1 
1 1 1 1 1 1 1 1 1 
1 1 1 1 1 1 1 1 1 
1 1 1 1 1 1 1 1 1 
1 1 1 1 1 1 1 1 1 
1 1 1 1 1 1 1 1 1 
1 1 1 1 1 1 1 1 1 
1 1 1 1 1 1 1 1 1 
1 1 1 1 1 1 1 1 1 
1 1 1 1 1 1 1 1 1 
1 1 1 1 1 1 1 1 1 
1 1 1 1 1 1 1 1 1 
1 1 1 1 1 1 1 1 1 
1 1 1 1 1 1 1 1 1 
1 1 1 1 1 1 1 1 1 
1 1 1 1 1 1 1 
i 3 538 int
0 0 0 0 0 0 0 0 0 
0 0 0 0 0 0 0 0 0 
0 0 0 0 0 0 0 0 0 
0 0 0 0 0 0 0 0 0 
0 0 0 0 0 0 0 0 0 
0 0 0 0 0 0 0 0 0 
0 0 0 0 0 0 0 0 0 
0 0 0 0 0 0 0 0 0 
0 0 0 0 0 0 0 0 0 
0 0 0 0 0 0 0 0 0 
0 0 0 0 0 0 0 0 0 
0 0 0 0 0 0 0 0 0 
0 0 0 0 0 0 0 0 0 
0 0 0 0 0 0 0 0 0 
0 0 0 0 0 0 0 0 0 
0 0 0 0 0 0 0 0 0 
0 0 0 0 0 0 0 0 0 
0 0 0 0 0 0 0 0 0 
0 0 0 0 0 0 0 0 0 
0 0 0 0 0 0 0 0 0 
0 0 0 0 0 0 0 0 0 
0 0 0 0 0 0 0 0 0 
0 0 0 0 0 0 0 0 0 
0 0 0 0 0 0 0 0 0 
0 0 0 0 0 0 0 0 0 
0 0 0 0 0 0 0 0 0 
0 0 0 0 0 0 0 0 0 
0 0 0 0 0 0 0 0 0 
0 0 0 0 0 0 0 0 0 
0 0 0 0 0 0 0 0 0 
0 0 0 0 0 0 0 0 0 
0 0 0 0 0 0 0 0 0 
0 0 0 0 0 0 0 0 0 
0 0 0 0 0 0 0 0 0 
0 0 0 0 0 0 0 0 0 
0 0 0 0 0 0 0 0 0 
0 0 0 0 0 0 0 0 0 
0 0 0 0 0 0 0 0 0 
0 0 0 0 0 0 0 0 0 
0 0 0 0 0 0 0 0 0 
0 0 0 0 0 0 0 0 0 
0 0 0 0 0 0 0 0 0 
0 0 0 0 0 0 0 0 0 
0 0 0 0 0 0 0 0 0 
0 0 0 0 0 0 0 0 0 
0 0 0 0 0 0 0 0 0 
0 0 0 0 0 0 0 0 0 
0 0 0 0 0 0 0 0 0 
0 0 0 0 0 0 0 0 0 
0 0 0 0 0 0 0 0 0 
0 0 0 0 0 0 0 0 0 
0 0 0 0 0 0 0 0 0 
0 0 0 0 0 0 0 0 0 
0 0 0 0 0 0 0 0 0 
0 0 0 0 0 0 0 0 0 
0 0 0 0 0 0 0 0 0 
0 0 0 0 0 0 0 0 0 
0 0 0 0 0 0 0 0 0 
0 0 0 0 0 0 0 0 0 
0 0 0 0 0 0 0 0 0 
0 0 0 0 0 0 0 0 0 
0 0 0 0 0 0 0 0 0 
0 0 0 0 0 0 0 0 0 
0 0 0 0 0 0 0 0 0 
0 0 0 0 0 0 0 0 0 
0 0 0 0 0 0 0 0 0 
0 0 0 0 0 0 0 0 0 
0 0 0 0 0 0 0 0 0 
0 0 0 0 0 0 0 0 0 
0 0 0 0 0 0 0 0 0 
0 0 0 0 0 0 0 0 0 
0 0 0 0 0 0 0 0 0 
0 0 0 0 0 0 0 0 0 
0 0 0 0 0 0 0 0 0 
0 0 0 0 0 0 0 0 0 
0 0 0 0 0 0 0 0 0 
0 0 0 0 0 0 0 0 0 
0 0 0 0 0 0 0 0 0 
0 0 0 0 0 0 0 0 0 
0 0 0 0 0 0 0 0 0 
0 0 0 0 0 0 0 0 0 
0 0 0 0 0 0 0 0 0 
0 0 0 0 0 0 0 0 0 
0 0 0 0 0 0 0 0 0 
0 0 0 0 0 0 0 0 0 
0 0 0 0 0 0 0 0 0 
0 0 0 0 0 0 0 0 0 
0 0 0 0 0 0 0 0 0 
0 0 0 0 0 0 0 0 0 
0 0 0 0 0 0 0 0 0 
0 0 0 0 0 0 0 0 0 
0 0 0 0 0 0 0 0 0 
0 0 0 0 0 0 0 0 0 
0 0 0 0 0 0 0 0 0 
0 0 0 0 0 0 0 0 0 
0 0 0 0 0 0 0 0 0 
0 0 0 0 0 0 0 0 0 
0 0 0 0 0 0 0 0 0 
0 0 0 0 0 0 0 0 0 
0 0 0 0 0 0 0 0 0 
0 0 0 0 0 0 0 0 0 
0 0 0 0 0 0 0 0 0 
0 0 0 0 0 0 0 0 0 
0 0 0 0 0 0 0 0 0 
0 0 0 0 0 0 0 0 0 
0 0 0 0 0 0 0 0 0 
0 0 0 0 0 0 0 0 0 
0 0 0 0 0 0 0 0 0 
0 0 0 0 0 0 0 0 0 
0 0 0 0 0 0 0 0 0 
0 0 0 0 0 0 0 0 0 
0 0 0 0 0 0 0 0 0 
0 0 0 0 0 0 0 0 0 
0 0 0 0 0 0 0 0 0 
0 0 0 0 0 0 0 0 0 
0 0 0 0 0 0 0 0 0 
0 0 0 0 0 0 0 0 0 
0 0 0 0 0 0 0 0 0 
0 0 0 0 0 0 0 0 0 
0 0 0 0 0 0 0 0 0 
0 0 0 0 0 0 0 0 0 
0 0 0 0 0 0 0 0 0 
0 0 0 0 0 0 0 0 0 
0 0 0 0 0 0 0 0 0 
0 0 0 0 0 0 0 0 0 
0 0 0 0 0 0 0 0 0 
0 0 0 0 0 0 0 0 0 
0 0 0 0 0 0 0 0 0 
0 0 0 0 0 0 0 0 0 
0 0 0 0 0 0 0 0 0 
0 0 0 0 0 0 0 0 0 
0 0 0 0 0 0 0 0 0 
0 0 0 0 0 0 0 0 0 
0 0 0 0 0 0 0 0 0 
0 0 0 0 0 0 0 0 0 
0 0 0 0 0 0 0 0 0 
0 0 0 0 0 0 0 0 0 
0 0 0 0 0 0 0 0 0 
0 0 0 0 0 0 0 0 0 
0 0 0 0 0 0 0 0 0 
0 0 0 0 0 0 0 0 0 
0 0 0 0 0 0 0 0 0 
0 0 0 0 0 0 0 0 0 
0 0 0 0 0 0 0 0 0 
0 0 0 0 0 0 0 0 0 
0 0 0 0 0 0 0 0 0 
0 0 0 0 0 0 0 0 0 
0 0 0 0 0 0 0 0 0 
0 0 0 0 0 0 0 0 0 
0 0 0 0 0 0 0 0 0 
0 0 0 0 0 0 0 0 0 
0 0 0 0 0 0 0 0 0 
0 0 0 0 0 0 0 0 0 
0 0 0 0 0 0 0 0 0 
0 0 0 0 0 0 0 0 0 
0 0 0 0 0 0 0 0 0 
0 0 0 0 0 0 0 0 0 
0 0 0 0 0 0 0 0 0 
0 0 0 0 0 0 0 0 0 
0 0 0 0 0 0 0 0 0 
0 0 0 0 0 0 0 0 0 
0 0 0 0 0 0 0 0 0 
0 0 0 0 0 0 0 0 0 
0 0 0 0 0 0 0 0 0 
0 0 0 0 0 0 0 0 0 
0 0 0 0 0 0 0 0 0 
0 0 0 0 0 0 0 0 0 
0 0 0 0 0 0 0 0 0 
0 0 0 0 0 0 0 0 0 
0 0 0 0 0 0 0 0 0 
0 0 0 0 0 0 0 0 0 
0 0 0 0 0 0 0 0 0 
0 0 0 0 0 0 0 0 0 
0 0 0 0 0 0 0 0 0 
0 0 0 0 0 0 0 0 0 
0 0 0 0 0 0 0 0 0 
0 0 0 0 0 0 0 0 0 
0 0 0 0 0 0 0 0 0 
0 0 0 0 0 0 0 0 0 
0 0 0 
v 3 538 double
0.0114706 -0.0318544 -6.65613e-05 -0.00143793 -0.000686109 -2.90798e-12 0.00190804 -0.000129997 -0.000231346 
0.0036508 0.00278029 -0.000156521 -0.000261019 0.00153559 -5.37024e-05 0.00394831 -0.00244461 -0.000237957 
-0.0115788 -0.000897963 -0.000331427 0.00155446 9.65823e-05 -3.19914e-12 -0.00471607 0.00158389 6.0596e-05 
0.00235748 -2.46395e-06 0.000234548 -0.00132568 0.000456219 5.60233e-13 0.0109556 -0.0028741 1.08648e-11 
0.00762635 0.000430964 1.28967e-08 0.000307081 -0.00152416 0.000158308 -3.59358e-05 -7.85312e-05 -0.0020767 
-0.00918619 0.000819041 -2.53189e-05 0.011518 -0.0014348 -0.00120059 0.00106045 -0.000881971 0.000261703 
-0.00257571 -0.00658516 5.0398e-12 0.0101815 0.000666444 -0.00638017 0.0017484 0.000720206 -0.00137283 
0.00421007 -0.00230568 -0.000478166 -0.000341858 -0.000438737 -0.00623352 0.00275281 0.00118678 -0.00044713 
-0.00187273 -0.0311816 0.000490516 -7.6754e-05 0.00346796 0.00140724 -0.0147194 0.00801322 -0.00265909 
-0.273166 0.109335 -0.0995885 -0.00369048 -9.6034e-05 0.00935799 0.00603456 0.000182714 0.00232625 
0.000241355 -3.0063e-05 -0.000523001 0.0103004 -0.0307145 0.00113038 -0.022562 -0.0172688 -0.0086671 
0.00136479 -0.024934 0.0111396 -0.0177057 -0.0196821 -1.31078e-11 0.0021609 0.00141488 0.000163459 
0.0165717 0.00265497 0.000100105 0.0148581 0.00352514 -2.77059e-05 0.011254 5.69831e-05 6.19714e-05 
0.0126537 -0.00681234 0.000205908 -0.000300766 0.000423227 1.74757e-05 0.00287403 0.0005114 0.000768453 
-0.0131625 0.00642191 -0.000467628 -0.0330533 3.82583e-06 -3.26219e-05 -0.0201906 0.0172757 5.53839e-12 
-0.0258468 -0.000293974 -0.000128739 -0.0271349 0.00147061 -3.06144e-06 -0.000398693 -0.00870066 -9.35406e-05 
0.0813198 -0.0612002 -0.0386495 0.0742924 -0.0875785 0.00019032 -0.00494063 -0.00535705 0.00253299 
0.0210006 -0.00240967 -0.000214875 0.021536 -0.00841329 -0.000110245 6.547e-05 -0.000969185 0.000453375 
-0.000209566 0.00845356 0.000131715 -1.50018e-05 -0.00312475 0.00586076 0.00708096 -0.0107544 0.0144532 
0.00517292 -0.00918081 0.00549335 -0.00873744 -7.99004e-05 -0.00847127 -0.00723627 -0.0247043 -4.81705e-05 
-0.0113085 4.48688e-05 -0.0113374 0.0384403 -0.0321395 0.00139779 -0.0379309 0.00624707 -6.92017e-05 
0.00266887 -0.0312986 0.000100049 0.00123438 -0.00286996 7.37913e-05 0.00911485 -0.005715 -1.03238e-06 
0.0158834 -0.0118631 0.000152052 0.00289526 0.00259692 -5.00913e-05 -0.000534068 0.000206466 2.26086e-05 
0.000123749 0.000866405 0.000180235 0.0326118 -0.0339048 1.22945e-11 -0.000117867 0.0002356 -0.000173125 
0.0254269 0.0592315 0.000261451 0.0240752 -0.00659725 -0.00162505 0.00940723 0.0363557 -0.023663 
0.00625422 -0.00433038 -5.42708e-05 0.0176701 0.00267771 0.012751 9.49029e-05 0.0382211 -0.027154 
-0.0905623 -0.0312143 -0.019278 0.0126948 -0.0294348 -0.0015885 0.118836 -0.020226 0.000111947 
-0.0132855 0.012905 0.0033125 -0.0286942 -0.01123 -0.0102403 0.275691 0.543244 -0.517136 
0.0379317 -0.0588409 1.62698e-12 -0.012825 -0.00374467 0.00600346 0.0109369 -0.052759 4.38061e-12 
0.000496061 -0.0495613 -0.393026 0.00194516 0.0508889 -0.0484367 0.0553971 -0.158811 0.0834495 
0.31439 0.227789 0.0295227 -0.0219573 -0.095025 2.21196e-06 0.0575911 -0.0677483 -0.0304524 
-0.00239558 0.0296562 -0.000287358 0.0196552 -0.0339077 -3.08583e-05 -0.0389041 -0.011198 0.00480034 
-0.0452712 -0.00658649 0.000252693 0.0468889 0.0134346 -4.61451e-05 -0.108504 0.0458414 1.84222e-05 
-0.0396151 0.0494095 -8.22957e-06 0.00705374 0.00403312 0.000167885 0.0237997 -0.00209028 -0.000951109 
-0.000235959 0.0300338 1.18553e-12 -0.00379281 0.045431 0.000371248 -0.00090844 -0.000699283 -0.0200737 
-0.0330815 0.0638609 -0.00181988 0.0158345 -0.0213721 0.000101007 -1.36971e-05 0.316158 -0.203893 
0.0130601 -0.020899 0.000592195 -0.0160693 -0.0371881 -0.00024635 -0.0918712 0.00608349 0.00232505 
-0.00283833 -0.103141 -1.04271 0.0270037 -0.0227136 -0.0156167 -7.68789e-05 -0.0239296 -1.07009 
0.0601248 -0.0570137 -0.0250466 -0.0138517 -0.0389673 -3.38452e-06 0.000895903 0.0290638 -0.000496556 
0.00586945 0.0383381 -0.00899692 0.0249896 -0.0122147 0.000194683 -0.00852842 -0.0249568 0.00618391 
0.000521761 -0.0150231 0.000371363 0.000945626 -0.0472738 2.4563e-05 0.0211208 -0.00887949 0.000282456 
0.019054 -0.0956568 -1.15296e-11 -0.00181518 0.0235226 -0.000129704 0.0134013 -0.00877733 -1.61779e-06 
-0.0201551 -0.0185637 -0.000147461 0.000397427 0.0344751 -1.4542e-05 0.00129277 0.0663481 4.39131e-05 
0.00779507 -0.00261761 0.00347461 0.0163106 -0.0389722 0.00143436 0.0100774 -0.0126393 9.22193e-05 
-0.0381313 -0.043969 -0.000859917 -0.00423494 -0.0242151 5.75064e-12 -0.000114019 0.0236472 -0.000245474 
-0.0271677 -0.0497424 -0.0134173 -0.016195 -0.0159613 0.00535843 0.0108047 -0.00793591 0.000105094 
0.0244375 -0.00745386 9.44516e-05 0.0256008 -0.0312342 0.000785499 0.00925089 0.00192007 0.0100982 
-0.000349767 0.0421851 -0.00812918 0.632141 -0.0903525 -0.350768 -0.0155946 -0.0185287 0.0067995 
-0.162577 0.17671 -0.0561793 0.229148 0.105441 -0.0725132 -0.00248115 -0.0473452 0.00451435 
0.00619898 -0.0166957 -0.000137822 -0.0323416 -0.0272653 -0.000340023 0.0928112 -0.152265 -0.00218993 
0.0785793 -0.0147958 6.24955e-12 -0.00023198 0.113485 -7.01258e-05 -0.0134668 -0.0379862 0.000177206 
-0.0366099 -0.00364638 -0.00233997 -0.0537639 -0.00183007 -0.0373197 -0.000703004 -0.030903 -0.0102923 
-0.0415428 0.00628116 1.41358e-05 -0.0628313 0.143515 2.055e-12 0.023798 -0.028838 -0.000879903 
-0.000352052 -0.014517 3.70118e-12 0.00177162 -0.0205703 -8.41969e-06 0.0651615 0.0326901 -3.80428e-05 
-0.155641 -0.115255 0.00367825 -0.0111454 0.04402 -1.25767e-05 -0.172955 -0.0591804 0.000148045 
-0.0456081 -0.00218437 -2.45076e-06 -0.00037675 -0.0147286 6.22669e-12 -0.00274646 0.0275851 2.19338e-05 
-0.0346339 0.000676798 -2.9391e-05 -0.204659 -0.094733 -1.28133e-12 -0.0375581 0.00919492 0.00133261 
-0.00176716 0.0299213 -6.28774e-05 0.0630998 0.245012 -0.0808335 1.34132e-05 0.0283967 -0.000303158 
0.063129 0.0147992 0.000462371 0.00715984 0.000467413 -0.015943 -0.325512 0.041308 0.0167903 
-0.0685257 0.0526129 0.0209617 -0.0226201 0.0588308 -0.0769954 -3.13418e-05 0.0293673 -0.00720866 
0.000645625 0.0335667 -0.00962722 -0.0173692 -0.0393027 0.00015032 0.00115829 -0.0462409 0.00027647 
0.000675599 -0.0388108 3.83285e-05 -0.000336169 -0.0434541 -0.000109779 0.000243537 0.059272 7.93017e-05 
0.0114165 -0.0351952 -0.00012985 0.000129871 -0.0635837 0.000253957 0.000565211 -0.0494648 -0.000124681 
0.0773852 0.0073376 -0.000139922 0.0090623 -0.0464461 0.000510235 -0.0431414 -0.123223 -0.0084014 
-0.099937 -0.0694655 0.000285308 -0.00204435 0.0116891 -0.106736 0.0270359 -0.0920949 -0.0103338 
0.0609965 0.0374117 -0.000502002 0.301063 -0.815633 -0.580041 0.0585202 0.0227236 0.0525619 
0.00881622 0.018299 0.00029275 -0.00821219 -0.0529354 0.0101079 0.00479049 -0.107142 1.19389e-11 
-0.000404678 0.056166 -0.0349829 -0.220724 0.569801 -0.589397 0.0138668 0.0176632 0.000122693 
0.0502234 0.00575372 0.01917 -8.20029e-05 -0.00415222 -0.0291637 0.0276437 -0.107204 -0.0823831 
0.00702706 -0.118621 0.000337007 0.0809894 -0.00230628 -0.00535022 0.0443941 0.0264918 0.00217915 
-0.0120268 -0.1176 -0.000132984 7.19119e-05 0.0606593 -0.00113907 -0.146983 0.269153 -0.112303 
0.03232 -0.0337933 -1.40536e-11 -0.015241 0.033938 7.08204e-05 -0.0127209 -0.264186 -7.45074e-05 
-0.0859371 -0.0467295 -0.000494011 0.00811995 -0.0755782 -0.00385314 -0.0537764 0.0180271 -0.0976867 
-0.0636133 -0.105877 0.00483056 -0.102628 -0.0217611 0.000521491 0.0163351 -0.0317095 -0.000853917 
-0.000961083 -0.0164773 0.000265434 0.00745084 -0.0981565 -0.000212612 -0.0031386 -0.0169638 0.00304737 
0.0480503 0.0641528 8.21882e-05 -2.7412e-05 0.0142247 0.000127297 0.0796423 -0.00767125 1.37168e-11 
0.0157628 -0.0226044 -9.21589e-05 0.00320456 0.063526 0.000126821 -0.000343212 0.0466056 -9.2029e-12 
0.0194146 -0.0706767 -0.030076 0.246086 0.071316 5.75064e-12 -0.095745 -0.142506 0.0555072 
-0.045469 -0.0780761 7.67188e-12 -0.0125445 0.0453309 -1.01072e-11 -0.0263224 0.0278329 0.000315806 
-0.118408 0.0518463 -0.284955 0.0445166 -0.0612563 0.000386668 0.0229792 -0.0321545 -0.0209683 
-0.290401 -0.116399 -0.168458 0.397319 0.379638 -0.195181 0.0355278 0.0635076 -0.000940697 
9.64657e-05 0.0143522 -0.000220342 -0.000150056 0.0480849 -0.0469263 0.00118102 0.0219179 3.34796e-12 
-1.55249e-05 0.0293222 1.77261e-05 0.00155913 0.00277094 1.27826e-11 -0.000216084 0.0292415 -0.000270534 
0.00705835 0.0269248 -1.15296e-11 -0.00730172 0.0387055 3.24289e-05 0.0112873 0.0167182 0.000119397 
0.00980182 0.0163007 0.000272275 0.0210824 -0.0129778 -1.54166e-05 0.0124454 0.0514611 -0.000739761 
0.0166654 0.0349952 -7.13131e-11 -0.00592219 -0.0109413 -9.15415e-05 -0.0195314 0.0502024 -0.000609837 
4.15326e-05 -0.00264514 0.000180876 0.0317403 -0.00790841 6.34007e-06 0.00629703 0.0590279 0.00586451 
0.0147171 -0.03734 -1.12116e-10 0.00415691 -0.00337893 1.6672e-05 0.00468555 0.0117864 -0.0139663 
0.0235696 -0.00336238 -0.0121711 -0.0505289 0.014942 -5.24659e-12 -0.00432194 0.0311484 0.000460581 
0.0395679 0.00183768 -0.0177702 -0.0577471 -0.0210187 3.76048e-12 0.0386922 0.0666284 0.00131185 
0.00146683 -0.00494247 0.000224524 0.022085 -0.0275706 0.000375967 0.0249147 0.00184861 -1.55091e-09 
0.0141938 0.0214027 0.0177368 0.041947 0.0902053 -0.0166109 0.00217263 -0.0751468 -5.24516e-05 
0.00230126 0.0140275 -0.000792186 0.0633921 0.0697493 0.000203599 0.183508 -0.137473 -0.000211154 
-0.00406829 0.0199745 -5.15445e-05 0.0202241 0.0324627 2.57417e-06 -0.0045755 0.0273951 3.76803e-07 
-3.41007e-05 -0.0269534 5.43101e-12 -0.079691 -0.137479 -0.000212705 0.151362 0.00125394 9.11906e-05 
0.0233852 0.0160584 0.000145202 0.000204199 0.0140948 0.00019243 -0.0352259 -0.0187611 9.24499e-05 
0.0276252 -0.0022442 0.0236227 -0.0760754 -0.161852 -0.192932 0.0695303 -0.0869671 0.000209762 
-0.0437802 -0.0557532 1.93816e-07 0.0022521 -0.0218509 0.0234206 0.180404 -0.496412 -0.156628 
0.0730931 -0.118342 -0.21077 -0.00837296 -0.0207225 -0.00675661 -0.00377843 -0.0282449 -0.0277727 
0.0607049 0.0168491 0.00650599 0.17091 0.45116 -0.0841969 0.0449167 -0.0141232 -0.000434665 
0.0222046 -0.0167451 0.000894932 -0.0580486 0.131484 -0.0197075 0.0010375 -0.00879896 -0.00618599 
0.0268371 -0.0170988 -0.0152797 -0.0714854 -0.0175949 -2.74094e-05 0.0633881 0.0459805 0.000124812 
0.0161995 -0.00839319 -0.00632563 0.00021932 -0.00825134 1.00271e-05 -0.0036506 0.00670423 -0.0142205 
0.0147625 0.0241429 0.000943468 0.000177244 -0.00817869 0.000218746 -0.00549407 0.00216417 0.00050147 
0.0034604 -0.00694489 -0.000253888 0.0307902 0.041406 -5.95472e-05 0.0201605 0.0149383 -0.000140365 
0.0188189 -0.0153606 -0.000386219 0.0113653 0.0107167 0.000149682 0.00876751 -0.0576125 -1.36055e-05 
0.0192221 -0.0145794 0.00038901 0.0433465 0.017776 0.000199209 0.0080192 -0.0171834 0.000107775 
-0.0656644 0.0453484 -0.00247032 0.00193951 -0.0123968 -0.000809461 -0.000664083 -0.00790809 -0.00166722 
0.241897 -0.105604 -0.0579433 -0.0209821 0.00238684 0.00508894 -0.0159548 0.0176057 0.0016943 
0.0865634 0.0106314 4.85059e-12 0.00248856 0.0353227 9.74924e-06 -0.000147554 -0.0527721 0.00186855 
0.020291 0.0426405 -0.00856515 0.0351637 -0.0752654 0.00624043 0.0213814 0.0180639 -0.000100589 
0.0622976 0.0215666 -0.0137157 0.054381 -0.0597433 -5.74696e-05 0.0385197 -0.0083717 6.56047e-08 
-0.00572288 -0.0401251 1.42004e-06 0.011043 -0.0612074 0.000101296 0.0267645 -0.0213942 0.000423799 
-0.0199697 -0.0202213 -4.66343e-12 0.0534078 0.0251122 -0.000424966 -0.0115383 0.013071 -0.011984 
-9.67185e-05 -0.0532141 -4.78041e-05 -6.42454e-05 -0.0601631 6.70955e-12 0.0743324 0.0129895 -2.1112e-05 
0.00106235 -0.0810909 -1.00245e-05 0.0641725 -0.0027855 0.000175598 -0.0125809 -0.049259 0.0225122 
6.68847e-05 -0.0167623 -6.89579e-05 -0.087323 -0.0128575 -0.000655866 -0.0401678 0.0259063 0.000109907 
-0.00274495 0.0118439 0.0321933 -0.0638804 -0.0312857 0.0310922 0.000721845 -0.00383651 0.00845057 
-0.0815185 -0.00832248 -0.0722077 0.0673761 0.086396 -0.0252334 0.00598543 0.000947919 0.00147232 
0.0376678 0.257113 0.0432751 -0.000185939 0.0127251 0.000574315 -0.113337 0.0913154 1.27275e-12 
0.00191683 0.0177089 -0.0148277 -0.163373 0.111256 0.00669258 -0.0707231 0.235247 -0.29005 
0.000222642 -0.0112604 -0.00218511 -0.00357107 0.000554873 0.000424403 -0.0132313 0.00243847 0.000325234 
0.015349 0.0145436 -0.0132537 -0.0655517 0.0675998 0.00114984 -0.000226815 -0.0125541 -0.000424024 
-0.00856816 0.00892133 -0.000207687 -0.0561601 0.0474303 1.54134e-05 0.00162153 -0.0180724 0.000549521 
0.00540606 0.0022634 1.38979e-05 -0.0766199 0.0481742 -0.000618227 -0.000229724 0.00857178 -0.000600819 
-0.0210839 0.0714942 3.62595e-06 0.00403874 -0.00982736 0.000315143 0.00920928 -0.00864698 -0.000134912 
0.00887054 -0.00367376 0.000635659 0.000106641 -0.00169571 1.87476e-12 -0.00475932 -0.0492913 -0.00090963 
-0.000213648 0.0131768 5.66832e-05 0.00785633 -0.0632646 -0.0406863 0.0147513 -0.0457569 0.0105486 
5.52751e-05 -0.00107975 -0.00189825 -0.00772364 -0.0102883 -2.9949e-05 0.00228417 -8.54785e-05 0.0268956 
0.00222391 -0.0100494 -0.00339713 -0.00678617 0.0732992 -0.0125065 0.000648291 -0.0065008 0.00283569 
0.0135456 0.00561165 0.00114329 -0.0122901 -0.0220293 -0.000551405 -0.00244045 -0.00275703 -0.0117316 