# vtk DataFile Version 4.0
Generated by LIGGGHTS
ASCII
DATASET POLYDATA
POINTS 538 float
0.0101329 0.00463938 0.0116574 0.00411276 0.00438335 0.0108755 0.00637857 0.00213945 0.0121393 
0.00307684 0.00660743 0.0116573 0.000677979 0.00744093 0.010678 0.0068456 0.0065297 0.0121393 
0.00216099 0.00344758 0.0106779 0.00420277 0.000770612 0.0107705 0.000770732 0.00599842 0.0107704 
0.00219462 0.00145881 0.0114587 0.00565272 0.00443687 0.010678 0.00386987 0.00275877 0.0107705 
0.00791664 0.00419579 0.0107705 0.000770473 0.00302978 0.0107704 0.00077047 0.000770481 0.0130296 
0.00118507 0.00451393 0.0107704 0.00259554 0.000994481 0.013834 0.000875537 0.00313352 0.0124097 
0.00268739 0.00462372 0.0105965 0.00247337 0.00408137 0.0121938 0.00438633 0.0045709 0.0130386 
0.00847846 0.0044337 0.0135643 0.000994447 0.00646998 0.0132936 0.00346778 0.00266022 0.0131775 
0.00987426 0.00154017 0.0114587 0.000770486 0.0051983 0.0120874 0.0102414 0.00769391 0.012456 
0.00288071 0.00553746 0.0139448 0.00879752 0.000875466 0.0134203 0.0115167 0.000994487 0.0132674 
0.000770496 0.00442742 0.0134217 0.00954623 0.00697612 0.0108754 0.0113787 0.00690063 0.0137105 
0.0120119 0.00581882 0.0126438 0.0120499 0.00593381 0.0107705 0.0125996 0.00128471 0.0112839 
0.0151727 0.00617716 0.01113 0.0224225 0.00365873 0.0114587 0.0165221 0.00399246 0.0114588 
0.0192009 0.00457526 0.0112839 0.0228699 0.00113006 0.01113 0.0145212 0.000770456 0.0107704 
0.0160548 0.00192428 0.0107704 0.0208965 0.000875484 0.0108754 0.0216036 0.00550128 0.010678 
0.0167868 0.000677902 0.0106779 0.0186373 0.00171257 0.0116574 0.0228699 0.00781786 0.01113 
0.0163516 0.0077763 0.0125012 0.0171743 0.00618854 0.0108755 0.0226871 0.00628156 0.0127776 
0.013402 0.00408985 0.0116574 0.0198042 0.00726406 0.0114587 0.0230055 0.00192629 0.013095 
0.0231244 0.00580749 0.0108755 0.0230052 0.00440661 0.0137259 0.0210087 0.00538541 0.0121433 
0.0150434 0.00167261 0.012741 0.0214599 0.000875478 0.0125333 0.0130241 0.0081508 0.011883 
0.0200654 0.000994481 0.0137734 0.00890961 0.00912357 0.0112839 0.0047108 0.0121447 0.0112839 
0.00794945 0.0143152 0.0121393 0.00630237 0.00887646 0.0106779 0.00425965 0.0150698 0.0116573 
0.0111031 0.0108522 0.0114587 0.00439079 0.00942617 0.0114587 0.00112995 0.0118132 0.01113 
0.00146556 0.0092674 0.0114587 0.00821585 0.0119211 0.010678 0.000770489 0.0136446 0.0107704 
0.00190209 0.0155661 0.0108754 0.00959757 0.0123459 0.0107705 0.00113226 0.014532 0.0124117 
0.00683625 0.0106645 0.0112839 0.0103989 0.00959763 0.013297 0.000677981 0.0127903 0.0125826 
0.00361496 0.0111077 0.0130677 0.0087991 0.0110938 0.0129271 0.0110938 0.0132611 0.0109944 
0.00268245 0.0128859 0.0123736 0.00615252 0.0119181 0.0130593 0.00288085 0.0165073 0.0136075 
0.0106607 0.00808257 0.010678 0.0045538 0.0130614 0.013364 0.0107301 0.0152164 0.0109956 
0.00052515 0.0157208 0.0110852 0.000770484 0.0160211 0.013536 0.011361 0.0148965 0.0127292 
0.0168384 0.00906058 0.0137857 0.0155479 0.0092949 0.0109944 0.0160013 0.0100053 0.0128173 
0.017352 0.015354 0.0112838 0.0141446 0.0115019 0.0116573 0.020653 0.0108849 0.0109944 
0.0154245 0.0164201 0.0108754 0.0179146 0.00900284 0.01113 0.0223516 0.012594 0.0114587 
0.0187251 0.0105884 0.010678 0.021144 0.00908443 0.0108755 0.016837 0.0109895 0.01113 
0.0228697 0.0100789 0.01113 0.0204591 0.0154795 0.0118832 0.0159603 0.0144387 0.012658 
0.0188551 0.0125784 0.0114587 0.0163027 0.0131855 0.01113 0.0230055 0.01357 0.0136124 
0.0124785 0.0104961 0.0134588 0.014289 0.0158807 0.0137282 0.0204983 0.0111785 0.013425 
0.0231245 0.0147767 0.0117567 0.0148313 0.0132792 0.0133263 0.0232295 0.0153042 0.0133723 
0.0143075 0.00988599 0.0136011 0.0136587 0.014781 0.0116574 0.0230059 0.0164804 0.0109942 
0.0014203 0.0168633 0.01228 0.00625563 0.0166914 0.0109944 0.0101463 0.0168937 0.013353 
0.000770465 0.0169533 0.0107704 0.0062559 0.024108 0.0114588 0.00301302 0.0197839 0.0109944 
0.00824142 0.0247381 0.010678 0.00128408 0.0212786 0.0112839 0.00694177 0.0212653 0.0108755 
0.00413349 0.0223775 0.0112838 0.00113008 0.0188093 0.01113 0.00239303 0.0172469 0.0108755 
0.00523889 0.0202368 0.01113 0.00991139 0.0202051 0.0107704 0.0104561 0.0186556 0.0108754 
0.00305752 0.0232687 0.0134384 0.00901584 0.0166923 0.0107705 0.00077033 0.0232002 0.0107702 
0.00604892 0.0218561 0.0124101 0.00306978 0.020892 0.0126452 0.00789807 0.018882 0.011883 
0.00438107 0.017985 0.0112839 0.00919133 0.0225041 0.011883 0.00473645 0.0194504 0.0133627 
0.0011297 0.0238486 0.0123717 0.00451726 0.0174055 0.0132503 0.0044788 0.0217922 0.0132227 
0.00501519 0.0231029 0.0128793 0.00854134 0.0240704 0.0138023 0.00802853 0.0247661 0.0126398 
0.0110212 0.0245393 0.0109944 0.00297416 0.0246689 0.0112839 0.0108789 0.0246308 0.0131901 
0.0115565 0.022973 0.010678 0.000875556 0.0249729 0.0108755 0.0119307 0.0171319 0.0112839 
0.0159727 0.0167529 0.0129375 0.0124369 0.0186469 0.0125758 0.0133052 0.0169376 0.012938 
0.0172253 0.0177598 0.01113 0.0140345 0.0223138 0.0109944 0.0148429 0.0241865 0.0109944 
0.0231243 0.022828 0.0108755 0.0194293 0.0187954 0.0112839 0.0120076 0.0205278 0.0114587 
0.0156766 0.0229738 0.0125266 0.0181758 0.0217593 0.0107705 0.0173855 0.0234612 0.01113 
0.0188176 0.0170325 0.0106779 0.0233367 0.0213983 0.0105965 0.0223422 0.0189607 0.0116574 
0.0143515 0.0184094 0.0114588 0.0165011 0.0218177 0.0107705 0.016251 0.0193514 0.0107703 
0.0205758 0.022021 0.011883 0.0143633 0.0207489 0.0122624 0.0231245 0.0168522 0.012823 
0.01399 0.0203653 0.0106779 0.0173068 0.0204722 0.0129313 0.0148213 0.0217159 0.013666 
0.0175122 0.0249105 0.0128574 0.0182281 0.0231952 0.0130621 0.0231246 0.0212 0.0125455 
0.0230055 0.0229836 0.0130941 0.00938858 0.0265211 0.0116574 0.0094726 0.0287797 0.0107704 
0.00746631 0.0287616 0.0112839 0.00853545 0.0322843 0.01113 0.00128395 0.0318916 0.0112839 
0.00327182 0.0272536 0.0112839 0.000994388 0.0273334 0.0109942 0.00529357 0.0288659 0.0108754 
0.00587139 0.0312048 0.0116574 0.00580066 0.0268071 0.0112839 0.0107023 0.0316058 0.01113 
0.0091306 0.0303862 0.0108754 0.00165741 0.0293067 0.0126369 0.00432313 0.025823 0.0131394 
0.00367945 0.0298024 0.0109944 0.00428939 0.0297561 0.0134376 0.00137508 0.0259503 0.0125611 
0.00327441 0.0311996 0.0121693 0.00711063 0.0263141 0.0132507 0.00738692 0.0258221 0.010678 
0.000770428 0.0273257 0.0137249 0.00263984 0.0325783 0.0123003 0.00341365 0.0326478 0.0109944 
0.00929293 0.0290514 0.0123987 0.000596479 0.0312748 0.0129219 0.0122185 0.0315846 0.0130852 
0.0117149 0.0290627 0.0116574 0.00740084 0.0333445 0.0122262 0.00691472 0.0332095 0.0107703 
0.011653 0.0267826 0.0107704 0.000875472 0.0333928 0.0127814 0.0189794 0.0253663 0.0132125 
0.0120845 0.0309161 0.010525 0.022308 0.0251007 0.0116574 0.0129801 0.0248833 0.0109944 
0.0168451 0.0256808 0.01113 0.0124419 0.0263815 0.0126245 0.0203547 0.0260664 0.0124979 
0.0153311 0.0252682 0.0127566 0.019181 0.0250675 0.0112839 0.0145147 0.0261485 0.0109944 
0.0158953 0.0275802 0.0109944 0.0181215 0.0279693 0.0112839 0.0144512 0.0291326 0.01113 
0.0128819 0.0322009 0.0109944 0.0225412 0.031442 0.0114587 0.0196348 0.0268776 0.0106779 
0.015211 0.0315856 0.0114587 0.0196247 0.0313566 0.0114587 0.0234036 0.0267602 0.0105964 
0.0164136 0.0293957 0.0122199 0.0131372 0.0273007 0.0107705 0.0185255 0.0296542 0.0123879 
0.0172963 0.0317618 0.010678 0.0233222 0.0280294 0.0106778 0.0211695 0.0284433 0.0120018 
0.0135932 0.0303653 0.0121367 0.0176426 0.0302365 0.0108755 0.0174066 0.0312527 0.0125015 
0.0143884 0.0269315 0.013 0.019025 0.0324475 0.0134333 0.0197493 0.0334733 0.0107704 
0.023322 0.0331395 0.0124955 0.0232295 0.0270029 0.0128521 0.000994503 0.034133 0.0109944 
0.000875473 0.0360432 0.0108754 0.00274037 0.0342638 0.0107705 0.000875475 0.0377942 0.0108754 
0.0060111 0.0353819 0.010678 0.0115344 0.0406158 0.0121393 0.00782524 0.0348383 0.01113 
0.00693471 0.0374265 0.0116574 0.00383406 0.0362419 0.0116574 0.00673179 0.0407352 0.0116574 
0.00934389 0.0365064 0.0109944 0.00394744 0.0393498 0.0114587 0.00933848 0.0386017 0.0109944 
0.00128392 0.0399807 0.0112839 0.0051613 0.0338482 0.01113 0.00128426 0.0355082 0.0129271 
0.0103104 0.0341537 0.0121906 0.00491878 0.0380529 0.0134778 0.00478331 0.0404774 0.0136341 
0.00191163 0.0380399 0.0125749 0.00931803 0.040143 0.0105965 0.0086832 0.0392727 0.0130096 
0.00595412 0.0353837 0.0128043 0.00926845 0.0414346 0.010678 0.0124713 0.0340213 0.0108755 
0.00257873 0.0407061 0.0131877 0.0174135 0.034063 0.011883 0.0143349 0.0339245 0.0109944 
0.021204 0.0334753 0.0117698 0.0136025 0.0388074 0.0133813 0.0179771 0.0367447 0.0109944 
0.0230056 0.0338057 0.0109944 0.012827 0.0366249 0.011883 0.0152035 0.0379826 0.0109944 
0.0140634 0.0410626 0.0107705 0.0196091 0.0389735 0.011883 0.0202829 0.0357277 0.0114587 
0.0232282 0.0403208 0.0107705 0.0154952 0.0360151 0.0109944 0.0171972 0.0383185 0.0107705 
0.0226719 0.0383226 0.0112839 0.0228656 0.0359213 0.01113 0.0179184 0.0409066 0.0108754 
0.0223568 0.0402867 0.012908 0.014705 0.0397778 0.0120155 0.0161098 0.0394804 0.0107704 
0.0159939 0.0414105 0.01113 0.0170349 0.0399519 0.0120475 0.0149367 0.0377493 0.0125454 
0.014241 0.0414297 0.0128327 0.00584584 0.0492936 0.0121015 0.00337993 0.0500718 0.0134638 
0.00771908 0.0428639 0.013312 0.00282561 0.0442397 0.0132908 0.00852051 0.0485126 0.0124875 
0.00582514 0.0477428 0.0127275 0.0100809 0.0465607 0.0129867 0.00470356 0.04354 0.0128369 
0.00662113 0.0436768 0.0121123 0.00285398 0.0462294 0.0109944 0.0105134 0.0478655 0.0114587 
0.00150503 0.0455191 0.0122718 0.000875466 0.0465916 0.0108754 0.00128396 0.0480762 0.0123893 
0.00370124 0.0444299 0.0109944 0.000770432 0.0449525 0.0107704 0.0070921 0.0494292 0.0109944 
0.00165843 0.0428741 0.0116574 0.0111438 0.0446111 0.011883 0.00837 0.0455265 0.01113 
0.00579894 0.0456432 0.0114587 0.00787725 0.0475887 0.0109944 0.00384003 0.0484273 0.0114587 
0.00603566 0.0478909 0.0108754 0.00841603 0.0431176 0.0112839 0.00558638 0.0433472 0.0108754 
[...]
POINT_DATA 538
FIELD FieldData 7
id 1 538 int
1 2 3 4 5 6 7 8 9 
10 11 12 13 14 15 16 17 18 
19 20 21 22 24 25 26 29 31 
33 34 35 38 39 45 55 56 57 
58 59 60 61 62 63 64 65 66 
67 68 69 70 71 72 73 76 77 
80 81 82 85 90 95 96 106 107 
108 109 110 111 112 113 114 115 116 
117 118 119 120 121 122 124 126 128 
129 131 132 133 134 141 144 155 162 
163 164 165 166 167 168 169 170 171 
172 173 174 175 176 177 178 179 181 
184 187 190 191 192 194 197 198 200 
219 220 222 223 224 225 226 227 228 
229 230 231 232 233 234 235 236 237 
238 239 240 241 242 244 245 248 250 
251 254 262 264 265 270 273 275 276 
279 283 284 285 286 287 288 289 290 
291 292 293 294 295 296 297 298 299 
300 301 302 303 305 306 308 309 310 
317 330 331 332 333 334 335 336 337 
338 339 340 341 342 343 344 346 347 
348 349 351 353 357 359 362 366 368 
375 376 379 380 382 385 386 387 388 
389 390 391 392 393 394 395 396 397 
398 399 400 401 402 403 404 405 406 
408 409 410 411 413 415 416 417 418 
419 421 435 436 437 439 440 441 442 
443 444 445 446 447 448 449 450 451 
453 455 456 457 458 459 460 466 478 
479 497 498 499 500 501 502 503 504 
505 506 507 508 509 510 511 513 514 
515 516 517 522 523 524 535 486 487 
488 489 490 491 492 493 494 495 496 
512 518 519 520 521 525 526 527 528 
529 530 531 532 533 534 536 537 538 
438 452 454 461 462 463 464 465 467 
468 469 470 471 472 473 474 475 476 
477 480 481 482 483 484 485 355 356 
358 360 361 363 364 365 367 369 370 
371 372 373 374 377 378 381 383 384 
407 412 414 420 422 423 424 425 426 
427 428 429 430 431 432 433 434 266 
267 268 269 271 272 274 277 278 280 
281 282 304 307 311 312 313 314 315 
316 318 319 320 321 322 323 324 325 
326 327 328 329 345 350 352 354 207 
208 209 210 211 212 213 214 215 216 
217 218 221 243 246 247 249 252 253 
255 256 257 258 259 260 261 263 142 
143 145 146 147 148 149 150 151 152 
153 154 156 157 158 159 160 161 180 
182 183 185 186 188 189 193 195 196 
199 201 202 203 204 205 206 86 87 
88 89 91 92 93 94 97 98 99 
100 101 102 103 104 105 123 125 127 
130 135 136 137 138 139 140 23 27 
28 30 32 36 37 40 41 42 43 
44 46 47 48 49 50 51 52 53 
54 74 75 78 79 83 84 
type 1 538 int
1 1 1 1 1 1 1 1 1 
1 1 1 1 1 1 1 1 1 
1 1 1 1 1 1 1 1 1 
1 1 1 1 1 1 1 1 1 
1 1 1 1 1 1 1 1 1 
1 1 1 1 1 1 1 1 1 
1 1 1 1 1 1 1 1 1 
1 1 1 1 1 1 1 1 1 
1 1 1 1 1 1 1 1 1 
1 1 1 1 1 1 1 1 1 
1 1 1 1 1 1 1 1 1 
1 1 1 1 1 1 1 1 1 
1 1 1 1 1 1 1 1 1 
1 1 1 1 1 1 1 1 1 
1 1 1 1 1 1 1 1 1 
1 1 1 1 1 1 1 1 1 
1 1 1 1 1 1 1 1 1 
1 1 1 1 1 1 1 1 1 
1 1 1 1 1 1 1 1 1 
1 1 1 1 1 1 1 1 1 
1 1 1 1 1 1 1 1 1 
1 1 1 1 1 1 1 1 1 
1 1 1 1 1 1 1 1 1 
1 1 1 1 1 1 1 1 1 
1 1 1 1 1 1 1 1 1 
1 1 1 1 1 1 1 1 1 
1 1 1 1 1 1 1 1 1 
1 1 1 1 1 1 1 1 1 
1 1 1 1 1 1 1 1 1 
1 1 1 1 1 1 1 1 1 
1 1 1 1 1 1 1 1 1 
1 1 1 1 1 1 1 1 1 
1 1 1 1 1 1 1 1 1 
1 1 1 1 1 1 1 1 1 
1 1 1 1 1 1 1 1 1 
1 1 1 1 1 1 1 1 1 
1 1 1 1 1 1 1 1 1 
1 1 1 1 1 1 1 1 1 
1 1 1 1 1 1 1 1 1 
1 1 1 1 1 1 1 1 1 
1 1 1 1 1 1 1 1 1 
1 1 1 1 1 1 1 1 1 
1 1 1 1 1 1 1 1 1 
1 1 1 1 1 1 1 1 1 
1 1 1 1 1 1 1 1 1 
1 1 1 1 1 1 1 1 1 
1 1 1 1 1 1 1 1 1 
1 1 1 1 1 1 1 1 1 
1 1 1 1 1 1 1 1 1 
1 1 1 1 1 1 1 1 1 
1 1 1 1 1 1 1 1 1 
1 1 1 1 1 1 1 1 1 
1 1 1 1 1 1 1 1 1 
1 1 1 1 1 1 1 1 1 
1 1 1 1 1 1 1 1 1 
1 1 1 1 1 1 1 1 1 
1 1 1 1 1 1 1 1 1 
1 1 1 1 1 1 1 1 1 
1 1 1 1 1 1 1 1 1 
1 1 1 1 1 1 1 
i 3 538 int
0 0 0 0 0 0 0 0 0 
0 0 0 0 0 0 0 0 0 
0 0 0 0 0 0 0 0 0 
0 0 0 0 0 0 0 0 0 
0 0 0 0 0 0 0 0 0 
0 0 0 0 0 0 0 0 0 
0 0 0 0 0 0 0 0 0 
0 0 0 0 0 0 0 0 0 
0 0 0 0 0 0 0 0 0 
0 0 0 0 0 0 0 0 0 
0 0 0 0 0 0 0 0 0 
0 0 0 0 0 0 0 0 0 
0 0 0 0 0 0 0 0 0 
0 0 0 0 0 0 0 0 0 
0 0 0 0 0 0 0 0 0 
0 0 0 0 0 0 0 0 0 
0 0 0 0 0 0 0 0 0 
0 0 0 0 0 0 0 0 0 
0 0 0 0 0 0 0 0 0 
0 0 0 0 0 0 0 0 0 
0 0 0 0 0 0 0 0 0 
0 0 0 0 0 0 0 0 0 
0 0 0 0 0 0 0 0 0 
0 0 0 0 0 0 0 0 0 
0 0 0 0 0 0 0 0 0 
0 0 0 0 0 0 0 0 0 
0 0 0 0 0 0 0 0 0 
0 0 0 0 0 0 0 0 0 
0 0 0 0 0 0 0 0 0 
0 0 0 0 0 0 0 0 0 
0 0 0 0 0 0 0 0 0 
0 0 0 0 0 0 0 0 0 
0 0 0 0 0 0 0 0 0 
0 0 0 0 0 0 0 0 0 
0 0 0 0 0 0 0 0 0 
0 0 0 0 0 0 0 0 0 
0 0 0 0 0 0 0 0 0 
0 0 0 0 0 0 0 0 0 
0 0 0 0 0 0 0 0 0 
0 0 0 0 0 0 0 0 0 
0 0 0 0 0 0 0 0 0 
0 0 0 0 0 0 0 0 0 
0 0 0 0 0 0 0 0 0 
0 0 0 0 0 0 0 0 0 
0 0 0 0 0 0 0 0 0 
0 0 0 0 0 0 0 0 0 
0 0 0 0 0 0 0 0 0 
0 0 0 0 0 0 0 0 0 
0 0 0 0 0 0 0 0 0 
0 0 0 0 0 0 0 0 0 
0 0 0 0 0 0 0 0 0 
0 0 0 0 0 0 0 0 0 
0 0 0 0 0 0 0 0 0 
0 0 0 0 0 0 0 0 0 
0 0 0 0 0 0 0 0 0 
0 0 0 0 0 0 0 0 0 
0 0 0 0 0 0 0 0 0 
0 0 0 0 0 0 0 0 0 
0 0 0 0 0 0 0 0 0 
0 0 0 0 0 0 0 0 0 
0 0 0 0 0 0 0 0 0 
0 0 0 0 0 0 0 0 0 
0 0 0 0 0 0 0 0 0 
0 0 0 0 0 0 0 0 0 
0 0 0 0 0 0 0 0 0 
0 0 0 0 0 0 0 0 0 
0 0 0 0 0 0 0 0 0 
0 0 0 0 0 0 0 0 0 
0 0 0 0 0 0 0 0 0 
0 0 0 0 0 0 0 0 0 
0 0 0 0 0 0 0 0 0 
0 0 0 0 0 0 0 0 0 
0 0 0 0 0 0 0 0 0 
0 0 0 0 0 0 0 0 0 
0 0 0 0 0 0 0 0 0 
0 0 0 0 0 0 0 0 0 
0 0 0 0 0 0 0 0 0 
0 0 0 0 0 0 0 0 0 
0 0 0 0 0 0 0 0 0 
0 0 0 0 0 0 0 0 0 
0 0 0 0 0 0 0 0 0 
0 0 0 0 0 0 0 0 0 
0 0 0 0 0 0 0 0 0 
0 0 0 0 0 0 0 0 0 
0 0 0 0 0 0 0 0 0 
0 0 0 0 0 0 0 0 0 
0 0 0 0 0 0 0 0 0 
0 0 0 0 0 0 0 0 0 
0 0 0 0 0 0 0 0 0 
0 0 0 0 0 0 0 0 0 
0 0 0 0 0 0 0 0 0 
0 0 0 0 0 0 0 0 0 
0 0 0 0 0 0 0 0 0 
0 0 0 0 0 0 0 0 0 
0 0 0 0 0 0 0 0 0 
0 0 0 0 0 0 0 0 0 
0 0 0 0 0 0 0 0 0 
0 0 0 0 0 0 0 0 0 
0 0 0 0 0 0 0 0 0 
0 0 0 0 0 0 0 0 0 
0 0 0 0 0 0 0 0 0 
0 0 0 0 0 0 0 0 0 
0 0 0 0 0 0 0 0 0 
0 0 0 0 0 0 0 0 0 
0 0 0 0 0 0 0 0 0 
0 0 0 0 0 0 0 0 0 
0 0 0 0 0 0 0 0 0 
0 0 0 0 0 0 0 0 0 
0 0 0 0 0 0 0 0 0 
0 0 0 0 0 0 0 0 0 
0 0 0 0 0 0 0 0 0 
0 0 0 0 0 0 0 0 0 
0 0 0 0 0 0 0 0 0 
0 0 0 0 0 0 0 0 0 
0 0 0 0 0 0 0 0 0 
0 0 0 0 0 0 0 0 0 
0 0 0 0 0 0 0 0 0 
0 0 0 0 0 0 0 0 0 
0 0 0 0 0 0 0 0 0 
0 0 0 0 0 0 0 0 0 
0 0 0 0 0 0 0 0 0 
0 0 0 0 0 0 0 0 0 
0 0 0 0 0 0 0 0 0 
0 0 0 0 0 0 0 0 0 
0 0 0 0 0 0 0 0 0 
0 0 0 0 0 0 0 0 0 
0 0 0 0 0 0 0 0 0 
0 0 0 0 0 0 0 0 0 
0 0 0 0 0 0 0 0 0 
0 0 0 0 0 0 0 0 0 
0 0 0 0 0 0 0 0 0 
0 0 0 0 0 0 0 0 0 
0 0 0 0 0 0 0 0 0 
0 0 0 0 0 0 0 0 0 
0 0 0 0 0 0 0 0 0 
0 0 0 0 0 0 0 0 0 
0 0 0 0 0 0 0 0 0 
0 0 0 0 0 0 0 0 0 
0 0 0 0 0 0 0 0 0 
0 0 0 0 0 0 0 0 0 
0 0 0 0 0 0 0 0 0 
0 0 0 0 0 0 0 0 0 
0 0 0 0 0 0 0 0 0 
0 0 0 0 0 0 0 0 0 
0 0 0 0 0 0 0 0 0 
0 0 0 0 0 0 0 0 0 
0 0 0 0 0 0 0 0 0 
0 0 0 0 0 0 0 0 0 
0 0 0 0 0 0 0 0 0 
0 0 0 0 0 0 0 0 0 
0 0 0 0 0 0 0 0 0 
0 0 0 0 0 0 0 0 0 
0 0 0 0 0 0 0 0 0 
0 0 0 0 0 0 0 0 0 
0 0 0 0 0 0 0 0 0 
0 0 0 0 0 0 0 0 0 
0 0 0 0 0 0 0 0 0 
0 0 0 0 0 0 0 0 0 
0 0 0 0 0 0 0 0 0 
0 0 0 0 0 0 0 0 0 
0 0 0 0 0 0 0 0 0 
0 0 0 0 0 0 0 0 0 
0 0 0 0 0 0 0 0 0 
0 0 0 0 0 0 0 0 0 
0 0 0 0 0 0 0 0 0 
0 0 0 0 0 0 0 0 0 
0 0 0 0 0 0 0 0 0 
0 0 0 0 0 0 0 0 0 
0 0 0 0 0 0 0 0 0 
0 0 0 0 0 0 0 0 0 
0 0 0 0 0 0 0 0 0 
0 0 0 0 0 0 0 0 0 
0 0 0 0 0 0 0 0 0 
0 0 0 0 0 0 0 0 0 
0 0 0 0 0 0 0 0 0 
0 0 0 0 0 0 0 0 0 
0 0 0 0 0 0 0 0 0 
0 0 0 0 0 0 0 0 0 
0 0 0 0 0 0 0 0 0 
0 0 0 
v 3 538 double
0.0278061 -0.027002 -0.00011373 0.0144012 -0.0011979 1.3925e-05 0.0301779 0.00017409 -6.71541e-05 
0.0377535 0.0208045 0.000174582 -0.000336514 -0.00601732 -0.000316977 -0.00574072 -0.00406091 -1.71334e-05 
-0.0190001 -0.000379439 0.000114009 0.0195525 0.000237127 7.02919e-12 0.00108446 -0.00539035 -0.000201261 
0.0135389 -7.13536e-05 -1.50802e-05 0.0146499 -0.0144664 1.28101e-05 0.00857066 -0.000264608 2.02849e-06 
0.0205313 0.00775456 0.000101598 -0.000608452 -0.0141927 -0.000116525 -3.1811e-05 -5.69917e-05 -0.0123693 
-0.0259584 -0.00646536 9.20301e-05 0.151021 4.50104e-06 -0.0232521 -0.000697464 -0.0106893 -0.000410605 
0.0153677 -0.00961941 -2.27285e-09 -0.041926 0.0377995 -0.0110885 0.0492983 0.0194798 -0.0131722 
-0.295279 -0.451381 -0.326229 0.000155113 0.0154565 -0.0478197 0.0249129 0.0299732 -0.0295195 
0.0243737 -0.0267524 -4.7422e-07 9.13879e-05 0.00241567 0.00404214 0.00829555 -0.0510195 0.00373596 
-0.252995 -0.301126 -0.174913 0.0249993 4.0799e-07 0.00943722 -0.120186 -3.21791e-06 -0.0813796 
-3.99262e-05 -0.00890354 -0.00270952 -0.000666566 -0.0338955 1.67277e-05 0.0139251 -0.0211351 0.0179244 
0.015669 -0.0287146 0.0271369 -0.00679449 0.00558257 8.30773e-12 0.0274957 0.00408089 -5.77492e-05 
0.0192602 -0.00896842 -0.00445829 0.00750128 -0.00437304 -2.93233e-05 0.0305034 -0.000984359 0.000204448 
0.0229749 -0.047487 0.00013865 0.000423771 -0.00281221 -0.000192094 0.0265358 5.91669e-05 1.61103e-05 
-0.0236945 0.0110523 0.000435991 -0.00420733 -0.00100915 -0.000153166 -0.0201906 0.0172757 5.53839e-12 
-0.0419461 0.000204257 0.000182729 -0.0179785 -0.0405232 -0.000201478 0.00340499 0.00391722 0.0026285 
0.269002 -0.0260266 -0.212282 -0.0240593 0.0424159 -8.65508e-12 -0.00114285 -0.00768862 -0.00451197 
0.032921 0.000227637 0.000532744 0.0133306 -0.0612411 -8.92238e-06 -4.00789e-05 -0.00597707 0.000889682 
-0.00094529 0.00187065 -2.00164e-09 -0.00328486 -0.000631993 -0.0257965 -0.00925604 -0.0480579 0.0710093 
0.00373675 -0.0129165 0.0120088 -0.00140695 -1.23723e-05 -0.00115716 0.002622 -0.0304149 0.000700008 
2.43964e-05 -6.87237e-05 0.000725972 0.030983 -0.033002 0.000245325 0.02582 0.0240915 -8.92121e-05 
0.0109779 -0.0200304 1.13913e-07 0.0293789 0.00318364 -0.000402579 0.0115223 -0.00947764 0.000213797 
0.0642309 0.0175388 0.00137575 0.0350579 0.02199 -0.000244698 -0.000221781 -0.00523466 0.000182864 
-0.0036488 -0.0054334 6.54371e-05 0.0702701 -0.013115 -8.93973e-05 0.000459628 -0.00498252 0.000122189 
0.0293591 0.0786617 0.00163516 0.0601879 0.0221312 -0.000249613 0.00556606 0.0472558 -0.0291812 
0.0670063 -0.00865913 0.000364121 -0.201719 -0.722036 -0.605947 9.98247e-05 0.0475641 -0.0358114 
-0.055399 -0.0214296 0.00464882 0.0458208 -0.015704 -0.0190861 0.153107 0.0153759 -0.000535342 
-0.0213961 0.00905869 0.0181465 -0.0275327 -0.0053596 -0.0366753 0.0938937 0.202466 -0.11171 
0.0110523 -0.0921849 5.18281e-12 -0.0266559 -0.0149912 0.013317 -0.116974 -0.0250906 0.0687768 
0.000565817 0.0308406 -0.123937 0.0025293 0.0475897 -0.0300628 -0.0985831 -0.487921 0.136519 
0.614309 0.0226219 -0.391441 0.0215845 0.0707237 -1.52586e-11 0.125881 -0.0681546 -0.063824 
-0.00140594 0.0619986 -0.00360403 0.0851311 -0.0591077 -0.000640389 -0.0915893 -0.100755 -2.83062e-06 
-0.00967567 -0.0266638 0.00382584 0.266851 0.211031 -0.000450159 -0.151926 -0.0424225 6.42448e-05 
0.176948 0.379362 -7.97375e-12 0.0252338 -0.0695105 8.58476e-05 0.0587325 0.0957777 -0.000201241 
-0.00153175 -0.0115033 -0.000117249 -0.00474424 0.0295886 0.00538791 0.0415565 0.0696369 0.0214187 
0.104008 0.0230508 -2.85857e-10 -0.0230668 0.0743654 0.000368032 0.000155874 -0.0470736 -0.0438482 
0.0592346 -0.0174058 -0.00255467 0.0372203 -0.0425968 -0.0179085 -0.153504 -0.0577082 -0.0091106 
-5.83184e-05 -0.0616298 -0.227136 0.15085 -0.0421502 -0.0548704 -0.000379979 -0.0838382 -0.314849 
0.127161 -0.0901073 -0.0320837 0.0263245 -0.0690053 -1.76363e-05 -0.0029952 0.0323757 0.00192564 
-0.0334777 0.151056 0.0161327 0.0371887 0.00558813 5.70101e-10 -0.0289782 0.012483 0.0026608 
-0.000631402 0.0624645 -0.00123604 -0.0157496 -0.0613638 -0.000462785 0.00641413 -0.0192867 0.00103616 
-0.0253437 -0.0277584 0.000305142 0.00639358 -0.0484319 -0.000539164 -0.0564254 0.0199841 -0.000257512 
-0.101982 0.021393 -0.00025086 0.000407681 -0.00982375 -5.84155e-05 -0.0198867 0.0928909 0.00293369 
-0.0709756 0.0386836 -0.00054542 0.0569905 -0.0778319 0.000680682 -0.0181139 -0.104809 -0.00133092 
-0.220738 -0.158093 0.0150773 -0.00423494 -0.0242151 5.75064e-12 0.0234794 -0.0106086 0.0349524 
-0.0510131 -0.0375353 0.0423162 0.00014972 -0.0372292 0.0151804 -0.00195329 0.0419463 0.000319463 
0.0175473 0.00827722 0.0190763 0.0053466 -0.0923224 -0.000231136 -0.163199 -0.0688566 0.147372 
-0.267537 -0.0146036 0.145187 0.382064 -0.295618 -0.0799789 -0.0566619 0.109628 0.0178181 
-0.164684 0.124755 -0.0125741 0.0989869 -0.0200853 -0.0272139 0.0150855 -0.0765087 -0.0341269 
-0.043388 -0.0481728 -7.23588e-05 0.00145198 0.0798295 -0.00057407 0.239804 -0.0187164 -0.419288 
0.0785793 -0.0147958 6.24955e-12 0.00034878 0.0623791 -0.000182734 -0.0180422 -0.102751 -0.000290816 
-0.00716174 0.0542277 -0.00450874 -0.109341 0.0290177 -0.118959 -0.0113521 -0.0749941 -0.00193472 
0.00568251 0.0620957 0.000621936 -0.226886 0.0248702 4.38061e-12 0.115699 -0.0667521 0.00228554 
-0.000352052 -0.014517 3.70118e-12 0.000588054 -0.0135495 -0.000322379 0.0427788 0.134339 -2.44244e-05 
-0.0439261 -0.00689893 0.139552 -0.03512 -0.00665944 -9.61697e-13 -0.1437 -0.0545061 0.000106383 
-0.0262927 -0.00205959 -0.001758 -0.00037675 -0.0147286 6.22669e-12 -0.00378931 0.0340517 -0.000373116 
-0.0490521 -0.046128 0.000244776 -0.0506607 -0.105932 2.59457e-05 -0.0781843 0.00924009 -0.00128359 
-0.0219866 0.0114552 -0.000219234 0.184851 0.00644407 -0.045624 -0.000219265 0.0293692 0.0032639 
0.0293099 -0.0316079 0.000109246 -0.0150072 -0.0148245 -0.0213102 -0.104524 -0.0278692 0.0725826 
0.154667 0.088136 0.00496033 -0.0475129 -0.00229032 -0.0349905 0.000720537 0.0439956 -0.0441513 
0.00108098 0.0253385 0.0010084 -0.0208762 -0.0298659 0.000443999 -0.0277465 -0.0288347 0.000315791 
-0.033538 -0.0132592 0.000668299 0.00873506 -0.0203766 -0.000646328 0.00124702 0.098053 -0.00024626 
-0.0231152 -0.205192 0.00122831 -0.00291183 -0.207675 -0.00253428 0.115885 -0.0202454 0.00305662 
0.0107667 0.0109546 0.000396769 0.00748758 -0.0536615 -0.00308643 0.0290787 -0.0405407 -0.0037317 
0.0159272 -0.0188425 0.000188538 0.000770361 -0.0241232 -0.235059 0.0819466 -0.0793035 0.0392103 
0.173951 0.0884788 0.00366139 0.0742469 -0.398771 -0.28494 -7.72864e-05 -0.0298708 0.158513 
0.00791091 0.0319444 0.0168505 -0.0149337 -0.108247 -0.000868317 -0.00112932 -0.0821075 6.21718e-06 
0.00467583 0.106244 0.0135601 -0.0643417 0.337232 -0.0395951 0.0314683 0.0168607 0.000392166 
-0.0424171 0.236839 -0.0479083 -0.000213665 -0.0509035 -0.0569153 -0.0534196 -0.0190288 -0.0497944 
-0.0242623 -0.0529928 0.000406123 0.0157271 0.00422211 0.0264208 0.0270318 0.00130504 0.00721478 
-0.10179 0.037165 0.00328877 5.91338e-05 0.0911435 0.00593503 0.0187877 0.0215384 -0.044293 
0.03232 -0.0337933 -1.40536e-11 -0.0210879 0.0108906 -0.000477193 0.00967696 -0.346707 -0.000632775 
0.0984357 0.0293872 -0.000339313 0.33268 -0.0256534 -0.190675 -0.0719821 -0.00593678 -0.100099 
0.0917055 -0.0129187 -0.0217167 0.0346907 -0.252885 -9.17931e-05 -0.180434 -0.116171 -6.41036e-05 
-0.203395 -0.0944489 8.71267e-05 -0.178099 -0.246109 0.000405672 -0.0257842 0.0707729 0.000683393 
0.00188618 0.095613 0.000662321 -0.000811478 -0.0356966 0.000404792 -0.168132 -0.204157 -0.00282291 
-0.00605356 0.0642935 0.000201366 -0.00560824 0.11759 6.38756e-05 -0.000379953 -0.00326591 -2.22028e-05 
0.0174542 0.0286526 -0.0642547 0.0330324 -0.0478076 -1.50253e-11 0.101636 -0.115923 -0.301559 
0.11116 0.0621016 1.19389e-11 -0.000204969 -0.00390775 0.000246344 -0.155293 -0.00859905 -0.249513 
-0.108821 0.122138 -0.135199 0.0720364 0.0478886 7.39929e-09 -0.00633096 0.0342818 -0.00876641 
0.390221 0.473428 -1.11385 0.210853 0.228045 0.00483272 0.0450201 0.114902 0.000345102 
-0.000439773 -0.0391869 0.00871176 -0.000728461 0.185265 -0.293222 3.4704e-05 0.0973458 -1.58399e-05 
-2.66424e-06 0.0307988 0.000113333 0.00689715 0.00662301 -1.64227e-05 0.000116171 0.0309172 9.02991e-05 
0.00182375 0.018926 -1.29519e-11 -0.0504407 -0.00294037 -1.28337e-05 -0.0712057 0.049578 -0.000773485 
0.017224 0.076447 7.57482e-05 0.0188937 0.00182664 0.000576249 -0.03531 0.0715993 0.0002292 
0.000948005 0.0391882 1.1099e-11 0.00198176 -0.000892092 -0.000495779 -0.00842821 0.014022 1.2391e-11 
0.000191302 -0.00791981 7.28347e-05 0.0326104 0.0152671 -0.00150056 0.00137601 0.0900577 0.01543 
0.0953565 0.105359 -0.360843 0.00128892 0.00737011 0.00542649 -0.093544 0.15662 -0.0459635 
0.0132365 -0.0047503 -0.00250391 -0.0505289 0.014942 -5.24659e-12 -0.00612167 -0.626457 -0.810167 
0.430527 -0.742186 -0.961342 -0.0386364 0.0386559 -8.15688e-12 0.319095 0.168647 -0.000478245 
0.000660719 -0.0036232 -0.00126173 0.0246573 0.0370396 -0.000231164 0.299821 0.0197968 0.000175177 
0.0145597 -0.0315558 0.0463716 0.024986 0.15721 0.109155 0.00649966 0.0336614 9.54863e-12 
0.000771827 -0.0524061 -0.000555026 0.0176304 0.233283 -0.000102102 0.14864 -1.66289e-05 -0.000940278 
-0.0387114 -0.00146958 -6.40475e-05 0.00087893 -0.036624 1.48183e-05 0.0613706 -0.0241684 -6.52563e-06 
0.005204 -0.00837388 2.77129e-06 -0.0423388 -0.0291867 -0.000422807 -0.0863673 -0.000839867 -9.91148e-12 
0.0222137 -0.0597874 5.02738e-05 -0.000719345 -0.0605145 0.000141258 0.00371248 -0.0335233 -0.000319877 
0.0354405 -0.0367744 -0.0251987 -0.0151646 -0.0206603 -0.042635 0.0349569 0.0666616 -0.00398205 
0.00723319 -0.0157018 -0.000161873 0.0166286 -0.00553286 0.0317839 0.254105 -0.206612 -0.014465 
-0.0331711 -0.0298189 -0.0359269 -0.0640385 -0.0167715 -0.0230382 -0.00103562 -0.00158141 -0.0113051 
0.0485621 -0.303338 -0.0306271 0.0723506 0.611263 -0.565787 0.0395666 0.0313176 -0.00976822 
0.0120553 -0.010424 -0.00149416 -0.370752 -0.0961846 -0.205296 -0.00888373 0.00591231 -0.00639454 
-0.000398929 -0.0231734 0.00934768 -0.0246269 0.0139794 -5.80521e-05 0.0366182 0.00932873 0.000123736 
-0.00638513 -0.0144492 0.00305071 0.000219426 -0.0122477 0.000407817 -0.000370992 0.0180639 -0.0288658 
-0.0144084 0.018249 0.000824591 -0.000210747 -0.0120434 -0.000297519 -0.0449983 0.0309216 0.00096318 
0.00594496 -0.0090343 0.000178862 0.0288095 0.00529296 0.000316825 0.0355229 0.0360564 -3.38243e-05 
0.0310561 -0.0128397 -0.000152282 0.0175381 0.0319041 -0.000176178 0.0124646 -0.00240713 4.44318e-05 
0.0105 -0.00941457 -0.000533304 0.0136603 0.0352476 -0.000222715 0.00190782 0.00352117 0.00014706 
-0.145363 0.112161 0.0189627 0.00784342 -0.00281475 -0.000766636 3.65124e-05 -0.0773511 -0.0309088 
0.224282 -0.583381 -0.645705 0.0472178 0.0540676 0.0294351 -0.00580925 0.0216844 -0.00734093 
0.0865623 0.0106387 -0.000291296 0.0221691 0.064183 0.00164742 0.000168898 -0.054294 0.00676233 
0.0395439 -0.00178416 0.000132226 0.0558686 0.0376549 -0.0110883 0.0289985 0.00253776 0.000451893 
0.0655432 0.011237 -0.027068 -0.0148563 0.00118448 3.07785e-05 0.072171 -0.0232719 -0.0614034 
-0.00459478 -0.0283142 3.58304e-05 0.0417605 -0.0850693 -3.68131e-05 0.0375567 0.0391407 -0.00134191 
-0.0144676 -0.00323879 -0.000395598 0.033209 0.0012208 -0.000491503 -0.0785806 0.0358568 -0.0189098 
0.00140008 -0.0555041 2.8173e-05 -6.42454e-05 -0.0601631 7.93769e-12 0.0594505 0.0505497 0.000407343 
-0.0127666 0.0013836 0.000128936 0.0157849 -0.0186673 -0.000258736 -0.0684295 -0.0426928 0.0230139 
0.000701913 -0.00953441 -4.72315e-05 -0.117622 -0.0113909 0.00136816 -0.0185672 -0.0192623 5.12344e-05 
-0.0143487 0.0152004 0.0520634 -0.0395181 -0.0495818 -0.00295489 -0.000595246 0.00361617 0.027773 
-0.0699094 -0.0203218 -0.0248742 0.0186314 -0.00162887 0.00795372 -0.00427366 -0.00253101 0.0212771 
-0.030359 0.176326 0.0468828 -0.00127146 -0.00453384 -0.0170645 -0.113899 -0.0133065 -2.64218e-12 
-0.000955187 0.00262287 -0.000588906 -0.0712129 0.0907404 0.00545151 -0.0348915 0.118155 -0.14252 
0.000409355 -0.00979439 -0.00381882 -0.0209461 0.0118364 -0.000326 -0.00792011 0.0187213 0.000537939 
0.00727893 0.000964169 -0.0023968 -0.0748267 0.0862133 -0.000642539 0.00179365 -0.0175674 0.0012563 
-0.018981 -0.0155857 0.00070227 0.0184122 -0.0274352 -1.25963e-11 -0.00979521 -0.0289472 -0.000159417 
-0.0116489 0.0141444 -4.12063e-05 -0.0971108 0.0589435 0.00107445 -0.000145865 0.0361863 -0.000588044 
0.0101039 0.0603016 -2.12645e-06 0.00527623 -0.00696322 0.000107987 0.014798 -0.000905626 0.000323048 
0.0110378 -0.000628372 -0.000694871 -0.003297 -0.01964 7.04667e-07 -0.0877851 -0.0318318 0.000415325 
0.0022712 0.0343386 -0.000122442 -0.0537245 -0.0966364 -0.011464 -0.0174402 -0.024824 0.00769064 
-0.000339904 0.00197656 -0.00397395 -0.0310464 0.0381095 0.000139739 -0.13256 0.191444 -0.114728 
-0.0568097 0.072122 -0.235118 0.175358 0.0689428 -0.233475 0.163263 0.141784 -0.0708444 
-0.0121626 -0.0170218 -0.00649975 -0.126624 0.227564 -0.0660703 -0.0345833 -0.0292906 -0.00177654 
-0.0203057 -0.0148376 -0.000529527 -0.196372 -0.104094 -0.104845 -0.0078775 0.0288989 -0.000904382 
0.0185556 0.0217151 5.60233e-13 -0.0240889 -0.034779 -0.790044 -0.0283017 0.0144423 -0.00226537 