# vtk DataFile Version 4.0
Generated by LIGGGHTS
ASCII
DATASET POLYDATA
POINTS 538 float
0.0101715 0.00455298 0.0116574 0.00412147 0.00438158 0.0108755 0.00639428 0.00213941 0.0121393 
0.00310447 0.00662359 0.0116573 0.000677971 0.00743688 0.0106779 0.00686951 0.00652288 0.0121393 
0.00216364 0.00344742 0.0106779 0.00421956 0.000770676 0.0107705 0.000770477 0.00599438 0.0107704 
0.00219954 0.00145877 0.0114587 0.0056616 0.0044365 0.010678 0.00389916 0.00275326 0.0107705 
0.00794083 0.00418924 0.0107704 0.000770462 0.00302523 0.0107704 0.000770469 0.000770482 0.0130252 
0.00118348 0.00450981 0.0107704 0.00262346 0.000994449 0.0138301 0.000875495 0.0031296 0.0124097 
0.00269314 0.00460436 0.0105965 0.00251326 0.00409197 0.0121809 0.00440083 0.00457298 0.0130301 
0.00830498 0.00414974 0.0133216 0.000994417 0.00655552 0.0132622 0.00348111 0.00266291 0.0131693 
0.00986142 0.00145867 0.0114587 0.000770489 0.00519466 0.0120876 0.0102255 0.00756829 0.0124944 
0.00228855 0.00525596 0.0136271 0.00879611 0.000875481 0.0134522 0.0114747 0.00099448 0.0132477 
0.000770495 0.00442343 0.0134217 0.00958214 0.00688897 0.0108754 0.0113944 0.00682847 0.0137525 
0.0120211 0.00574412 0.0126845 0.0120031 0.00588194 0.0107705 0.0125931 0.00128404 0.0112839 
0.0152013 0.00617725 0.01113 0.0224609 0.00366523 0.0114587 0.0165605 0.00399853 0.0114587 
0.0192508 0.0045033 0.0112839 0.0228699 0.00113006 0.01113 0.014515 0.00077045 0.0107704 
0.0160317 0.00194513 0.0107704 0.0208865 0.000875488 0.0108754 0.0215506 0.00554663 0.010678 
0.0167273 0.000677967 0.010678 0.0186077 0.00165743 0.0116574 0.02287 0.00782694 0.01113 
0.0167158 0.00764588 0.0123033 0.0172996 0.00613459 0.0108755 0.0226743 0.00628859 0.0127742 
0.0134514 0.00407258 0.0116574 0.0198515 0.00717378 0.0114587 0.0230055 0.00192198 0.0130968 
0.0231245 0.00582591 0.0108754 0.0230055 0.00441962 0.0137287 0.0210045 0.0053067 0.0122546 
0.0150575 0.00163651 0.0127516 0.0214574 0.000875482 0.0125307 0.0129903 0.00808071 0.011883 
0.020064 0.000994482 0.0137721 0.00900167 0.00906106 0.0112839 0.00464998 0.0121657 0.0112839 
0.00793186 0.0142511 0.0121393 0.00633555 0.00887167 0.0106779 0.00425267 0.0150561 0.0116574 
0.0111454 0.010835 0.0114587 0.00442874 0.00943746 0.0114587 0.00113006 0.011811 0.01113 
0.00146236 0.0092647 0.0114588 0.00832179 0.0118416 0.010678 0.000770533 0.0136426 0.0107705 
0.00192737 0.0156866 0.0108754 0.00967101 0.0123604 0.0107705 0.00113006 0.0146089 0.0123671 
0.0068805 0.0106563 0.0112839 0.0102367 0.00936607 0.0130289 0.000677983 0.0128656 0.0125273 
0.00337494 0.0110212 0.0130079 0.00882862 0.0110389 0.0129126 0.0114796 0.0132207 0.0109944 
0.00262935 0.0129182 0.0124085 0.00608415 0.0118822 0.0130315 0.00313134 0.0172859 0.0131862 
0.0107355 0.0079123 0.010678 0.00451532 0.0130548 0.0133774 0.0107335 0.0150653 0.0109941 
0.000525022 0.0157083 0.010525 0.000770481 0.0161727 0.0133856 0.0113228 0.0142315 0.0125601 
0.0180884 0.00963971 0.0127794 0.01552 0.00912624 0.0109944 0.0161818 0.00981754 0.0127394 
0.0173408 0.0154082 0.0112839 0.0142037 0.0113992 0.0116574 0.0205631 0.0107016 0.0109944 
0.0153277 0.0163957 0.0108754 0.0182027 0.00914243 0.01113 0.0220208 0.0126195 0.0114587 
0.0189214 0.0107387 0.0106779 0.0212354 0.00896077 0.0108754 0.0169112 0.0109972 0.01113 
0.0228696 0.0101292 0.01113 0.0204442 0.0156092 0.011883 0.0159696 0.0144497 0.0126493 
0.0188112 0.0127246 0.0114587 0.0162836 0.0131786 0.01113 0.0230055 0.0139529 0.0132673 
0.0125102 0.0104402 0.0134588 0.014281 0.0157849 0.0137181 0.0202824 0.011114 0.0133963 
0.0231232 0.014593 0.0108755 0.0149195 0.0132018 0.0132865 0.0232295 0.0154186 0.01231 
0.0144886 0.00971323 0.0135261 0.0136491 0.0146674 0.0116574 0.0230056 0.0165736 0.0109944 
0.0013391 0.017258 0.0122866 0.00630534 0.016673 0.0109944 0.0100886 0.016869 0.0133403 
0.000770464 0.016963 0.0107704 0.006255 0.0239825 0.0114587 0.0030647 0.0197507 0.0109944 
0.00828105 0.0245023 0.010678 0.00128397 0.0212874 0.0112839 0.00695077 0.0213069 0.0108754 
0.0040804 0.0223201 0.0112839 0.00113007 0.0188831 0.01113 0.00241838 0.0173673 0.0108755 
0.00527829 0.0202299 0.01113 0.00997654 0.0201101 0.0107705 0.0104199 0.0185215 0.0108755 
0.00284307 0.0230882 0.0133989 0.00900472 0.0166287 0.0107705 0.000770466 0.0232092 0.0107704 
0.00600813 0.0217433 0.0124303 0.00304039 0.0208337 0.0126625 0.00788162 0.018912 0.011883 
0.00445235 0.0179668 0.0112839 0.00926786 0.0224139 0.011883 0.00472599 0.0194645 0.0133518 
0.000994459 0.0239292 0.0123661 0.00574093 0.0168528 0.012657 0.00443381 0.0217577 0.013228 
0.00467661 0.023429 0.0127885 0.00912206 0.024364 0.0135369 0.00803914 0.0246482 0.0126178 
0.0110393 0.0245002 0.0109944 0.002888 0.0245944 0.0112839 0.0112367 0.0243338 0.0131147 
0.0117628 0.0229341 0.010678 0.000875466 0.0252623 0.0108755 0.0118986 0.0170016 0.0112839 
0.0159032 0.016764 0.0129239 0.0122595 0.0186809 0.012411 0.0133036 0.0168384 0.0129156 
0.0171305 0.0178143 0.01113 0.0137065 0.0224851 0.0109944 0.0149805 0.0240186 0.0109944 
0.0231234 0.0227899 0.0108755 0.0194295 0.0187771 0.0112839 0.0120994 0.0206902 0.0114587 
0.0154208 0.0228716 0.0127276 0.0181721 0.0218717 0.0107703 0.0169767 0.0233045 0.01113 
0.0187083 0.017056 0.0106779 0.0233357 0.0213597 0.0105965 0.0223341 0.019052 0.0116574 
0.0142548 0.0183946 0.0114588 0.0160339 0.0215722 0.0107705 0.0161279 0.0193883 0.0107704 
0.0205689 0.0221129 0.011883 0.0145677 0.0210177 0.0121368 0.0231245 0.0169668 0.0128587 
0.0140632 0.0203744 0.0106779 0.0173024 0.0205047 0.0128716 0.01405 0.0218475 0.0136061 
0.017583 0.0251115 0.0128801 0.0181662 0.0233349 0.01289 0.0231247 0.0212967 0.0125244 
0.0230055 0.02308 0.0130741 0.00936139 0.0264437 0.0116574 0.00946799 0.0287014 0.0107704 
0.007479 0.028675 0.0112839 0.00860047 0.0322369 0.01113 0.00128844 0.0320287 0.0112839 
0.00331984 0.0271257 0.0112839 0.000994469 0.0271246 0.0109944 0.00535987 0.0287527 0.0108755 
0.00605787 0.0312231 0.0116574 0.00585042 0.0266896 0.0112839 0.0106596 0.0312995 0.01113 
0.00888596 0.0302681 0.0108755 0.00165821 0.0293096 0.0123428 0.00442123 0.0255685 0.013099 
0.00387066 0.0298775 0.0109944 0.00479761 0.0283008 0.0127882 0.00149604 0.025966 0.0127031 
0.00331103 0.0312211 0.0121685 0.00710922 0.0261692 0.0132769 0.00741656 0.0255993 0.010678 
0.000770479 0.0274553 0.0136346 0.00215088 0.0335675 0.0116864 0.00346124 0.0326688 0.0109944 
0.00929748 0.0293173 0.0122872 0.000596485 0.0312343 0.0128415 0.0123342 0.0313808 0.0128834 
0.0117268 0.0287769 0.0116574 0.00755145 0.0333995 0.0122085 0.00701293 0.0332715 0.0107704 
0.0116203 0.0265193 0.0107704 0.000875492 0.0335798 0.0127285 0.0189027 0.0261227 0.0127297 
0.0121476 0.0308322 0.0105256 0.0222839 0.0252024 0.0116573 0.0130243 0.0243776 0.0109944 
0.0167063 0.0255485 0.01113 0.0127326 0.0261076 0.012448 0.0201851 0.0260748 0.0121945 
0.0152433 0.0251236 0.0127996 0.0190038 0.0248003 0.0112839 0.0144798 0.0259436 0.0109944 
0.0157541 0.0274707 0.0109944 0.0180118 0.0275732 0.0112839 0.0144404 0.0291349 0.01113 
0.0129618 0.0324893 0.0109944 0.0225412 0.0314145 0.0114587 0.0196436 0.026668 0.010678 
0.0151962 0.0315891 0.0114587 0.0196253 0.0315134 0.0114587 0.0234031 0.0268645 0.0105965 
0.0164863 0.0292657 0.0120815 0.0135299 0.0274143 0.0107704 0.0185012 0.0294044 0.0120765 
0.0173313 0.0317509 0.010678 0.023294 0.0281324 0.010678 0.0209841 0.0284881 0.011883 
0.0132612 0.0305971 0.0109254 0.0177539 0.0302459 0.0108754 0.0174046 0.0311915 0.0124504 
0.0143552 0.027471 0.0120706 0.0198401 0.0332881 0.0130733 0.0198479 0.0336817 0.0107703 
0.023322 0.033112 0.0124955 0.0232296 0.0272477 0.0125614 0.000994379 0.0342693 0.0109944 
0.000875483 0.0361315 0.0108754 0.00274505 0.0342663 0.0107704 0.000875414 0.0378823 0.0108754 
0.00602848 0.0354508 0.010678 0.0114798 0.0406803 0.0121393 0.0078582 0.0349353 0.01113 
0.00693808 0.0375132 0.0116573 0.00388723 0.0362166 0.0116574 0.00676473 0.0408321 0.0116573 
0.00933459 0.0365642 0.0109944 0.00394803 0.039326 0.0114587 0.00945483 0.0385802 0.0109944 
0.00128397 0.0399629 0.0112839 0.00523317 0.0338331 0.01113 0.00129637 0.0356906 0.012947 
0.0104978 0.034211 0.0116574 0.00491016 0.0380473 0.0134938 0.00479798 0.0405358 0.0136104 
0.00196468 0.0380254 0.0125532 0.00918364 0.0401499 0.0105965 0.00865417 0.0392668 0.0129803 
0.0062194 0.0351613 0.0122638 0.00914786 0.0414213 0.010678 0.0129028 0.0343545 0.0108754 
0.00258572 0.0407008 0.0131781 0.017464 0.0340277 0.011883 0.0147249 0.0339515 0.0109944 
0.0212343 0.0334557 0.0118386 0.0137167 0.0390861 0.0133824 0.0179937 0.0367132 0.0109944 
0.0230058 0.0337783 0.0109944 0.0128918 0.0369224 0.011883 0.0156934 0.0377899 0.0109944 
0.0140128 0.0411022 0.0107704 0.0196706 0.0390054 0.011883 0.020306 0.0357519 0.0114588 
0.0232294 0.0402574 0.0107705 0.0153982 0.035823 0.0109944 0.0173544 0.038343 0.0107704 
0.022716 0.0382983 0.0112839 0.02287 0.0358941 0.01113 0.0178517 0.040832 0.0108754 
0.0223923 0.0402467 0.012925 0.0145071 0.0394535 0.0115761 0.0162663 0.039448 0.0107704 
0.0159018 0.0412792 0.01113 0.0170611 0.0399092 0.012136 0.0154376 0.0367874 0.0122591 
0.0143387 0.0411781 0.0123568 0.00581673 0.0492438 0.0120802 0.00336972 0.049987 0.0133886 
0.00774854 0.0425709 0.0132145 0.00332412 0.0454534 0.0124769 0.00864686 0.0484718 0.0125106 
0.00587537 0.0477029 0.0127278 0.00938858 0.0465342 0.0122188 0.00470121 0.0435349 0.0128223 
0.00667313 0.0436212 0.0120981 0.00273888 0.0462115 0.0109944 0.0106654 0.0479542 0.0114587 
0.00143374 0.0454839 0.0123071 0.000875447 0.046563 0.0108754 0.00129178 0.0480848 0.0123496 
0.00370717 0.0444635 0.0109944 0.000770411 0.0449239 0.0107704 0.00707449 0.0494345 0.0109944 
0.00167713 0.0428538 0.0116574 0.0112226 0.0446865 0.011883 0.00844582 0.045582 0.01113 
0.00587796 0.0456033 0.0114587 0.00793564 0.0476399 0.0109944 0.00387362 0.0483365 0.0114587 
0.00608182 0.0478543 0.0108754 0.00850548 0.0431735 0.0112839 0.00561634 0.0433089 0.0108754 
[...]
POINT_DATA 538
FIELD FieldData 7
id 1 538 int
1 2 3 4 5 6 7 8 9 
10 11 12 13 14 15 16 17 18 
19 20 21 22 24 25 26 29 31 
33 34 35 38 39 45 55 56 57 
58 59 60 61 62 63 64 65 66 
67 68 69 70 71 72 73 76 77 
80 81 82 85 90 95 96 106 107 
108 109 110 111 112 113 114 115 116 
117 118 119 120 121 122 124 126 128 
129 131 132 133 134 141 144 155 162 
163 164 165 166 167 168 169 170 171 
172 173 174 175 176 177 178 179 181 
184 187 190 191 192 194 197 198 200 
219 220 222 223 224 225 226 227 228 
229 230 231 232 233 234 235 236 237 
238 239 240 241 242 244 245 248 250 
251 254 262 264 265 270 273 275 276 
279 283 284 285 286 287 288 289 290 
291 292 293 294 295 296 297 298 299 
300 301 302 303 305 306 308 309 310 
317 330 331 332 333 334 335 336 337 
338 339 340 341 342 343 344 346 347 
348 349 351 353 357 359 362 366 368 
375 376 379 380 382 385 386 387 388 
389 390 391 392 393 394 395 396 397 
398 399 400 401 402 403 404 405 406 
408 409 410 411 413 415 416 417 418 
419 421 435 436 437 439 440 441 442 
443 444 445 446 447 448 449 450 451 
453 455 456 457 458 459 460 466 478 
479 497 498 499 500 501 502 503 504 
505 506 507 508 509 510 511 513 514 
515 516 517 522 523 524 535 486 487 
488 489 490 491 492 493 494 495 496 
512 518 519 520 521 525 526 527 528 
529 530 531 532 533 534 536 537 538 
438 452 454 461 462 463 464 465 467 
468 469 470 471 472 473 474 475 476 
477 480 481 482 483 484 485 355 356 
358 360 361 363 364 365 367 369 370 
371 372 373 374 377 378 381 383 384 
407 412 414 420 422 423 424 425 426 
427 428 429 430 431 432 433 434 266 
267 268 269 271 272 274 277 278 280 
281 282 304 307 311 312 313 314 315 
316 318 319 320 321 322 323 324 325 
326 327 328 329 345 350 352 354 207 
208 209 210 211 212 213 214 215 216 
217 218 221 243 246 247 249 252 253 
255 256 257 258 259 260 261 263 142 
143 145 146 147 148 149 150 151 152 
153 154 156 157 158 159 160 161 180 
182 183 185 186 188 189 193 195 196 
199 201 202 203 204 205 206 86 87 
88 89 91 92 93 94 97 98 99 
100 101 102 103 104 105 123 125 127 
130 135 136 137 138 139 140 23 27 
28 30 32 36 37 40 41 42 43 
44 46 47 48 49 50 51 52 53 
54 74 75 78 79 83 84 
type 1 538 int
1 1 1 1 1 1 1 1 1 
1 1 1 1 1 1 1 1 1 
1 1 1 1 1 1 1 1 1 
1 1 1 1 1 1 1 1 1 
1 1 1 1 1 1 1 1 1 
1 1 1 1 1 1 1 1 1 
1 1 1 1 1 1 1 1 1 
1 1 1 1 1 1 1 1 1 
1 1 1 1 1 1 1 1 1 
1 1 1 1 1 1 1 1 1 
1 1 1 1 1 1 1 1 1 
1 1 1 1 1 1 1 1 1 
1 1 1 1 1 1 1 1 1 
1 1 1 1 1 1 1 1 1 
1 1 1 1 1 1 1 1 1 
1 1 1 1 1 1 1 1 1 
1 1 1 1 1 1 1 1 1 
1 1 1 1 1 1 1 1 1 
1 1 1 1 1 1 1 1 1 
1 1 1 1 1 1 1 1 1 
1 1 1 1 1 1 1 1 1 
1 1 1 1 1 1 1 1 1 
1 1 1 1 1 1 1 1 1 
1 1 1 1 1 1 1 1 1 
1 1 1 1 1 1 1 1 1 
1 1 1 1 1 1 1 1 1 
1 1 1 1 1 1 1 1 1 
1 1 1 1 1 1 1 1 1 
1 1 1 1 1 1 1 1 1 
1 1 1 1 1 1 1 1 1 
1 1 1 1 1 1 1 1 1 
1 1 1 1 1 1 1 1 1 
1 1 1 1 1 1 1 1 1 
1 1 1 1 1 1 1 1 1 
1 1 1 1 1 1 1 1 1 
1 1 1 1 1 1 1 1 1 
1 1 1 1 1 1 1 1 1 
1 1 1 1 1 1 1 1 1 
1 1 1 1 1 1 1 1 1 
1 1 1 1 1 1 1 1 1 
1 1 1 1 1 1 1 1 1 
1 1 1 1 1 1 1 1 1 
1 1 1 1 1 1 1 1 1 
1 1 1 1 1 1 1 1 1 
1 1 1 1 1 1 1 1 1 
1 1 1 1 1 1 1 1 1 
1 1 1 1 1 1 1 1 1 
1 1 1 1 1 1 1 1 1 
1 1 1 1 1 1 1 1 1 
1 1 1 1 1 1 1 1 1 
1 1 1 1 1 1 1 1 1 
1 1 1 1 1 1 1 1 1 
1 1 1 1 1 1 1 1 1 
1 1 1 1 1 1 1 1 1 
1 1 1 1 1 1 1 1 1 
1 1 1 1 1 1 1 1 1 
1 1 1 1 1 1 1 1 1 
1 1 1 1 1 1 1 1 1 
1 1 1 1 1 1 1 1 1 
1 1 1 1 1 1 1 
i 3 538 int
0 0 0 0 0 0 0 0 0 
0 0 0 0 0 0 0 0 0 
0 0 0 0 0 0 0 0 0 
0 0 0 0 0 0 0 0 0 
0 0 0 0 0 0 0 0 0 
0 0 0 0 0 0 0 0 0 
0 0 0 0 0 0 0 0 0 
0 0 0 0 0 0 0 0 0 
0 0 0 0 0 0 0 0 0 
0 0 0 0 0 0 0 0 0 
0 0 0 0 0 0 0 0 0 
0 0 0 0 0 0 0 0 0 
0 0 0 0 0 0 0 0 0 
0 0 0 0 0 0 0 0 0 
0 0 0 0 0 0 0 0 0 
0 0 0 0 0 0 0 0 0 
0 0 0 0 0 0 0 0 0 
0 0 0 0 0 0 0 0 0 
0 0 0 0 0 0 0 0 0 
0 0 0 0 0 0 0 0 0 
0 0 0 0 0 0 0 0 0 
0 0 0 0 0 0 0 0 0 
0 0 0 0 0 0 0 0 0 
0 0 0 0 0 0 0 0 0 
0 0 0 0 0 0 0 0 0 
0 0 0 0 0 0 0 0 0 
0 0 0 0 0 0 0 0 0 
0 0 0 0 0 0 0 0 0 
0 0 0 0 0 0 0 0 0 
0 0 0 0 0 0 0 0 0 
0 0 0 0 0 0 0 0 0 
0 0 0 0 0 0 0 0 0 
0 0 0 0 0 0 0 0 0 
0 0 0 0 0 0 0 0 0 
0 0 0 0 0 0 0 0 0 
0 0 0 0 0 0 0 0 0 
0 0 0 0 0 0 0 0 0 
0 0 0 0 0 0 0 0 0 
0 0 0 0 0 0 0 0 0 
0 0 0 0 0 0 0 0 0 
0 0 0 0 0 0 0 0 0 
0 0 0 0 0 0 0 0 0 
0 0 0 0 0 0 0 0 0 
0 0 0 0 0 0 0 0 0 
0 0 0 0 0 0 0 0 0 
0 0 0 0 0 0 0 0 0 
0 0 0 0 0 0 0 0 0 
0 0 0 0 0 0 0 0 0 
0 0 0 0 0 0 0 0 0 
0 0 0 0 0 0 0 0 0 
0 0 0 0 0 0 0 0 0 
0 0 0 0 0 0 0 0 0 
0 0 0 0 0 0 0 0 0 
0 0 0 0 0 0 0 0 0 
0 0 0 0 0 0 0 0 0 
0 0 0 0 0 0 0 0 0 
0 0 0 0 0 0 0 0 0 
0 0 0 0 0 0 0 0 0 
0 0 0 0 0 0 0 0 0 
0 0 0 0 0 0 0 0 0 
0 0 0 0 0 0 0 0 0 
0 0 0 0 0 0 0 0 0 
0 0 0 0 0 0 0 0 0 
0 0 0 0 0 0 0 0 0 
0 0 0 0 0 0 0 0 0 
0 0 0 0 0 0 0 0 0 
0 0 0 0 0 0 0 0 0 
0 0 0 0 0 0 0 0 0 
0 0 0 0 0 0 0 0 0 
0 0 0 0 0 0 0 0 0 
0 0 0 0 0 0 0 0 0 
0 0 0 0 0 0 0 0 0 
0 0 0 0 0 0 0 0 0 
0 0 0 0 0 0 0 0 0 
0 0 0 0 0 0 0 0 0 
0 0 0 0 0 0 0 0 0 
0 0 0 0 0 0 0 0 0 
0 0 0 0 0 0 0 0 0 
0 0 0 0 0 0 0 0 0 
0 0 0 0 0 0 0 0 0 
0 0 0 0 0 0 0 0 0 
0 0 0 0 0 0 0 0 0 
0 0 0 0 0 0 0 0 0 
0 0 0 0 0 0 0 0 0 
0 0 0 0 0 0 0 0 0 
0 0 0 0 0 0 0 0 0 
0 0 0 0 0 0 0 0 0 
0 0 0 0 0 0 0 0 0 
0 0 0 0 0 0 0 0 0 
0 0 0 0 0 0 0 0 0 
0 0 0 0 0 0 0 0 0 
0 0 0 0 0 0 0 0 0 
0 0 0 0 0 0 0 0 0 
0 0 0 0 0 0 0 0 0 
0 0 0 0 0 0 0 0 0 
0 0 0 0 0 0 0 0 0 
0 0 0 0 0 0 0 0 0 
0 0 0 0 0 0 0 0 0 
0 0 0 0 0 0 0 0 0 
0 0 0 0 0 0 0 0 0 
0 0 0 0 0 0 0 0 0 
0 0 0 0 0 0 0 0 0 
0 0 0 0 0 0 0 0 0 
0 0 0 0 0 0 0 0 0 
0 0 0 0 0 0 0 0 0 
0 0 0 0 0 0 0 0 0 
0 0 0 0 0 0 0 0 0 
0 0 0 0 0 0 0 0 0 
0 0 0 0 0 0 0 0 0 
0 0 0 0 0 0 0 0 0 
0 0 0 0 0 0 0 0 0 
0 0 0 0 0 0 0 0 0 
0 0 0 0 0 0 0 0 0 
0 0 0 0 0 0 0 0 0 
0 0 0 0 0 0 0 0 0 
0 0 0 0 0 0 0 0 0 
0 0 0 0 0 0 0 0 0 
0 0 0 0 0 0 0 0 0 
0 0 0 0 0 0 0 0 0 
0 0 0 0 0 0 0 0 0 
0 0 0 0 0 0 0 0 0 
0 0 0 0 0 0 0 0 0 
0 0 0 0 0 0 0 0 0 
0 0 0 0 0 0 0 0 0 
0 0 0 0 0 0 0 0 0 
0 0 0 0 0 0 0 0 0 
0 0 0 0 0 0 0 0 0 
0 0 0 0 0 0 0 0 0 
0 0 0 0 0 0 0 0 0 
0 0 0 0 0 0 0 0 0 
0 0 0 0 0 0 0 0 0 
0 0 0 0 0 0 0 0 0 
0 0 0 0 0 0 0 0 0 
0 0 0 0 0 0 0 0 0 
0 0 0 0 0 0 0 0 0 
0 0 0 0 0 0 0 0 0 
0 0 0 0 0 0 0 0 0 
0 0 0 0 0 0 0 0 0 
0 0 0 0 0 0 0 0 0 
0 0 0 0 0 0 0 0 0 
0 0 0 0 0 0 0 0 0 
0 0 0 0 0 0 0 0 0 
0 0 0 0 0 0 0 0 0 
0 0 0 0 0 0 0 0 0 
0 0 0 0 0 0 0 0 0 
0 0 0 0 0 0 0 0 0 
0 0 0 0 0 0 0 0 0 
0 0 0 0 0 0 0 0 0 
0 0 0 0 0 0 0 0 0 
0 0 0 0 0 0 0 0 0 
0 0 0 0 0 0 0 0 0 
0 0 0 0 0 0 0 0 0 
0 0 0 0 0 0 0 0 0 
0 0 0 0 0 0 0 0 0 
0 0 0 0 0 0 0 0 0 
0 0 0 0 0 0 0 0 0 
0 0 0 0 0 0 0 0 0 
0 0 0 0 0 0 0 0 0 
0 0 0 0 0 0 0 0 0 
0 0 0 0 0 0 0 0 0 
0 0 0 0 0 0 0 0 0 
0 0 0 0 0 0 0 0 0 
0 0 0 0 0 0 0 0 0 
0 0 0 0 0 0 0 0 0 
0 0 0 0 0 0 0 0 0 
0 0 0 0 0 0 0 0 0 
0 0 0 0 0 0 0 0 0 
0 0 0 0 0 0 0 0 0 
0 0 0 0 0 0 0 0 0 
0 0 0 0 0 0 0 0 0 
0 0 0 0 0 0 0 0 0 
0 0 0 0 0 0 0 0 0 
0 0 0 0 0 0 0 0 0 
0 0 0 0 0 0 0 0 0 
0 0 0 0 0 0 0 0 0 
0 0 0 0 0 0 0 0 0 
0 0 0 0 0 0 0 0 0 
0 0 0 0 0 0 0 0 0 
0 0 0 0 0 0 0 0 0 
0 0 0 
v 3 538 double
0.00607531 0.00293314 0.000500185 -0.00143793 -0.000686109 -2.90798e-12 0.000435229 0.000506116 -5.70412e-05 
-0.00403312 -0.00436854 0.000272687 0.000133603 0.00155897 0.000194375 -0.00271727 -0.00298293 -0.000337334 
-0.00214623 0.000137741 0.000267538 0.00155446 9.65823e-05 -3.19914e-12 5.93998e-05 0.000965814 -2.36147e-05 
0.000725607 -1.56473e-05 -8.85826e-05 -0.00132568 0.000456219 5.60233e-13 0.0109556 -0.0028741 1.08648e-11 
0.00572496 -0.00115774 0.000995584 -0.000105011 -0.000870059 -6.38194e-05 -6.14985e-05 -3.5687e-05 -0.000929366 
-0.00265715 -3.70687e-07 3.35586e-06 -0.0075216 0.000430241 0.00133197 5.03795e-05 -0.000437419 -0.000179717 
-0.00257571 -0.00658516 5.0398e-12 -0.00485767 -0.00398798 0.00335379 -0.00194016 -0.00186625 0.00267468 
0.00356794 -0.000583911 -0.00280629 0.00049676 0.0466909 0.00923201 0.000190161 -0.00276761 0.00157009 
-0.000587859 0.00183839 -0.00111406 -2.18919e-06 0.00103338 0.00029563 -0.0219711 -0.0225754 0.0140105 
-0.0370318 0.00411984 -0.00776115 0.00104718 -0.000103092 -0.00151578 -0.00318117 -0.00015262 -0.00021356 
-4.43276e-05 -0.000307077 -0.000421247 -0.00427979 -0.000156944 -0.00109585 -0.0178931 -0.0199213 0.0109723 
0.00695442 -0.0278922 0.0347691 -0.0222697 -0.0297244 -1.28133e-12 -0.00207128 -0.00412745 -0.000202075 
-0.00019595 -0.000108178 0.000519903 0.01134 0.00122964 -2.44784e-05 0.00701143 0.00430179 9.5982e-05 
0.00904072 -0.00261897 0.000158131 7.98504e-05 -8.6883e-05 1.08302e-05 -0.000611641 0.000191106 0.000375561 
0.0100922 0.00404818 -0.000482453 0.00297408 6.44137e-05 6.4813e-05 -0.0201906 0.0172757 5.53839e-12 
0.00246396 1.70659e-05 9.9901e-06 0.00260805 -0.000274661 4.35605e-05 7.24824e-05 0.0151025 9.86194e-05 
0.087697 -0.0391748 -0.0620163 0.199308 -0.0605257 -0.000235814 0.00205886 0.0123109 -0.00182673 
0.00568315 -0.00637105 -0.000131955 0.00726189 -0.00291814 7.58289e-06 4.13962e-05 -0.00150536 0.000620095 
5.92547e-06 0.00461625 -0.000166551 1.79288e-05 0.0120623 -0.0010487 0.0087369 -0.00162925 0.000746804 
0.0119583 -0.00274851 -0.00127724 0.000893706 -4.54097e-05 0.000828679 -0.0243571 -0.0270754 -4.76837e-05 
0.00117926 5.40251e-05 0.00119589 0.00597945 -0.0112519 -0.000220417 -0.0227885 -0.00582394 0.00190488 
-0.0169963 -0.0195512 7.64455e-05 0.02013 0.00476682 0.00115823 -0.0121709 -0.00235779 -0.000797855 
0.00447612 -0.0109011 -7.0597e-05 0.0136005 -0.0108667 -0.0003913 -0.00041192 -0.00132672 -0.000425147 
0.00545761 -3.31524e-05 -0.000119949 0.0239303 -0.0144306 0.000142217 0.000272958 0.00193654 -0.00256407 
-0.00280846 0.0317319 -0.000373902 0.0183792 0.00157839 -2.56151e-06 -0.000767689 0.00859672 -0.016319 
0.00055169 0.0122698 -0.000906377 0.0307754 -0.0407559 -0.0126645 -4.08271e-05 0.0088574 -0.00822457 
-0.151367 -0.0716224 -0.0509486 0.00472071 -0.0130553 0.000784723 0.144133 -0.0287028 0.00183482 
-0.0112532 0.001209 0.00816585 -0.0222643 -0.0136898 0.00336888 -0.033785 0.0587777 -0.0131913 
-0.0195724 -0.0635177 5.96675e-12 -0.00901344 0.00394967 0.00165764 -0.0498484 -0.01167 -0.0396058 
6.0829e-05 -0.0174571 -4.81257e-12 -7.91384e-05 -0.00312514 -7.09151e-05 -0.0457733 0.040616 0.0385905 
0.221906 0.388462 -0.0936875 0.015938 -0.112211 5.18415e-07 0.0491867 -0.0540203 -0.035906 
-0.0036898 -0.00199735 0.000639835 0.00969988 -0.0398634 8.74364e-05 -0.020097 0.000472363 -0.000170738 
-0.0428572 -0.0121021 -0.000922125 0.0573168 0.0393902 0.000127483 -0.0799428 0.0454993 2.87121e-05 
-0.0175061 0.071582 -0.00072852 -0.00560183 0.00644049 -6.07737e-05 0.0175983 0.0126026 -0.000388249 
-0.000235959 0.0300338 1.18553e-12 -0.00598418 0.0517868 7.9671e-05 -0.00808937 0.0177227 0.0105488 
-0.0343673 0.069085 0.000311937 -0.0428925 0.021716 3.62613e-05 2.96779e-05 -0.00482812 -0.0064695 
0.000165853 -0.0224491 0.000591834 -0.0163862 -0.0332223 -0.00309665 -0.0492998 0.0412078 -0.0108084 
-0.00103576 0.00302271 9.43154e-12 0.0305009 -0.0303364 -0.0195688 4.87132e-06 -0.0431007 -0.065048 
0.0529289 -0.0672094 -0.0308948 -0.00971267 -0.0430471 8.86559e-05 0.000725318 0.0308175 -0.000244531 
-0.0382662 0.0140828 -0.00287926 0.0328428 0.014491 0.000137235 -0.0128783 -0.0321982 0.0212114 
-4.96551e-05 -0.0734664 -7.14997e-05 0.01703 -0.020307 0.000188837 0.0144384 -0.00795499 -0.0001238 
0.019054 -0.0956568 -1.15296e-11 0.000408303 0.0219108 3.55674e-05 0.0132287 0.000864717 -0.000882503 
0.0113977 -0.00992255 -0.0011816 0.00074615 0.0215139 0.000134882 0.00890987 0.0282047 1.59265e-05 
0.0183314 -0.00551126 -0.000669357 0.0202701 -0.00585647 7.34882e-12 0.0252517 -0.0201706 -0.000268632 
-0.0432826 -0.00897167 -0.0335476 -0.00423494 -0.0242151 5.75064e-12 0.000395438 0.0226517 0.000649818 
0.0246171 -0.0169899 0.00925719 0.00343486 0.00428436 -0.00821213 0.0188584 -0.0132083 -0.000149653 
0.0187963 -0.00492952 0.000358188 0.017643 -0.0116956 -7.01912e-06 0.000267165 0.00399337 -0.00304154 
0.000828884 0.0938894 -0.0307578 0.211234 0.00288846 0.0619917 0.0229009 -0.0262679 -0.00631186 
-0.0746217 0.108685 -0.0547651 0.412008 0.322315 -0.359154 0.0113148 -0.0175678 0.00760619 
-0.00141408 0.00166128 -0.000187024 0.000286113 -0.0175476 0.000109412 0.147526 -0.14603 0.00315689 
0.0785793 -0.0147958 6.24955e-12 -0.000529607 -0.0221692 -3.88909e-05 -0.0302944 -0.0532578 0.00130635 
-0.0272248 -0.017119 -0.00574625 -0.0451818 -0.0688605 0.0203428 -0.030365 -0.0457711 -0.000625882 
-0.0433752 0.0114433 -0.000265125 -0.0781701 -0.0317686 -1.00906e-07 0.00494206 -0.00393311 0.000184331 
-0.000352052 -0.014517 3.70118e-12 -0.0121053 -0.000260478 0.000986079 -0.0241958 -0.0786592 -7.28117e-06 
-0.0649006 -0.0432936 -0.00987598 0.0174629 0.016763 -0.00239442 0.0177106 0.015896 0.000365022 
-0.0417422 0.0116118 0.00089188 -0.00037675 -0.0147286 6.22669e-12 -0.0135067 0.0266284 -0.000107916 
-0.0480198 -0.0332921 -0.000142834 -0.204659 -0.094733 -1.28133e-12 -0.0633487 0.000725932 0.00302177 
0.0123598 0.0422382 9.56791e-05 -0.0465823 -0.0610035 0.0202794 -3.70306e-05 -0.0288889 -0.104849 
-0.0181231 -0.0321091 -0.00109376 -0.0212461 0.0138026 -0.0233241 -0.514421 0.234951 -0.312367 
-0.0882072 0.0773034 0.00120125 0.0449003 0.120809 -0.0175013 0.00195748 0.0197311 0.00282652 
-0.000157012 0.015376 0.0182006 -0.00878448 -0.0068585 -0.000488124 -0.00531556 -0.00832515 -0.0014348 
-0.00368956 -0.0203127 5.29737e-05 0.0572439 -0.0171979 -6.60843e-05 0.00588915 0.017752 0.000638972 
-0.000608734 -0.018242 -0.000139168 0.000393634 -0.0216519 0.000252735 -0.00580196 -0.0188499 -6.90177e-05 
0.047641 0.00673537 0.000844015 0.000278771 -0.0233224 -0.000457086 0.0340344 -0.111243 3.69134e-11 
-0.121754 -0.0448653 5.74424e-05 0.00162919 0.00142968 -0.0362881 0.0491915 -0.0870583 -0.00349071 
0.029202 0.0299029 8.5833e-05 0.414458 -0.281135 -0.203669 0.118613 0.0572024 0.0190883 
0.00291209 0.0024634 -0.00656655 -0.0043353 -0.0246946 0.00305618 -0.0070429 0.00125201 4.63014e-12 
0.000376947 0.0188735 -0.0108902 -0.0258724 0.0446314 0.119609 0.0232088 0.00464059 -0.000569812 
-0.0425294 -0.00996447 -0.00623448 -0.000848673 -0.00650979 -0.0158966 0.101117 -0.100727 -0.0513618 
-0.00388126 -0.100429 -0.000307534 0.109706 0.00442903 -0.0310982 0.0301558 0.0112854 -0.00138724 
-0.00144368 -0.103709 0.00223734 2.96223e-05 0.0190024 -0.00143619 -0.246004 0.573717 -0.564705 
-0.471173 0.0779334 0.00223778 0.0458209 0.0193852 8.87708e-05 -0.00323108 -0.0174086 0.0142189 
-0.128948 -0.00581123 0.000206318 0.00753871 -0.00248392 0.0226646 -0.00976221 -0.0116581 -0.166599 
-0.0880039 -0.0451405 0.0255802 -0.114584 -0.0332555 -0.000208835 0.00866021 -0.00448957 0.000938599 
0.0369194 -0.0267216 0.000264288 0.0433085 -0.118888 -0.000390995 -0.00967981 -0.0609915 -0.000601055 
0.0469337 0.0166128 -0.000170892 -0.00105932 0.00822951 7.66232e-05 0.078663 -0.055274 -6.7031e-06 
0.0153555 -0.0670496 -0.000699116 -0.00152025 0.0176568 -0.000108894 -0.000343212 0.0466056 -9.2029e-12 
0.023667 -0.106793 -0.0698956 0.0855124 0.0168266 0.000354826 -0.031181 -0.0897557 -0.0214241 
-0.043464 0.00816383 1.05165e-11 -0.0125445 0.0453309 -1.01072e-11 0.00550468 0.00471539 -3.71366e-05 
0.0901225 0.0553578 -1.20768 0.0189362 -0.0133317 0.000571848 0.0137021 -0.0410996 0.0167975 
0.0538371 -0.0281598 0.0228156 0.0180497 0.18031 0.048494 -0.0211725 -0.0355739 -0.00346457 
-0.000131006 0.00733702 0.00176622 -0.000163253 0.0199265 0.0471925 0.00704726 0.0172521 0.00355948 
0.00140998 0.0208726 0.00147483 0.00353101 -0.00437749 0.000289497 0.000376717 0.0252835 8.32901e-05 
0.00705835 0.0269248 -1.15296e-11 0.00269615 0.0227364 -0.000193016 0.00281586 0.022368 -1.53859e-05 
6.9683e-05 0.0194147 1.21283e-05 0.0128835 -0.00962938 -0.00042765 0.031432 0.00729597 5.10447e-05 
0.0331412 0.020499 1.73007e-11 -0.00828488 -0.00858581 -8.34114e-05 -0.0225271 0.0459005 5.22841e-05 
-2.70794e-05 0.0279342 -0.00021768 0.0267934 -0.000797612 -4.38065e-05 0.00799756 0.0307474 0.00209945 
0.0032431 0.0255906 -0.000357749 -0.00363432 -0.00186738 0.0016682 0.00996293 -0.0797737 -0.0346962 
0.0360504 0.025992 -0.0229242 -0.0529324 -0.0301401 -6.59113e-10 0.0179504 -0.00340737 0.0066599 
0.00182448 0.0182473 -0.000186977 -0.0350192 -0.029414 1.8984e-10 0.0058876 0.0154143 0.000493763 
0.00842938 0.00304392 0.00392958 -0.00959934 0.00316299 0.00131608 -0.0110463 -0.0695085 0.000553669 
-0.0120905 0.00188964 -0.00998989 0.0859632 0.0525857 -0.112094 0.0514349 -0.00505548 -9.33626e-06 
-0.0031426 0.00180286 -0.00161846 -0.0205176 0.0153555 0.000408397 0.0754499 -0.0685149 0.000501917 
0.00255022 0.0399776 0.00196814 0.063389 -0.0262908 -0.000480899 -0.00707205 -0.0435177 -0.000480762 
-3.41007e-05 -0.0269534 5.43101e-12 -0.0529526 -0.0510994 -0.00103668 0.0549839 -0.00315929 0.000465581 
-0.000493894 -0.000174432 0.000192452 -0.00455174 0.000904955 0.000303708 -0.0314092 -0.0323704 9.7546e-05 
0.0516143 -0.0106492 0.0222643 -0.226629 -0.177428 -0.296763 0.0149923 -0.093704 -5.06433e-06 
-0.0886241 -0.102483 3.52967e-05 -0.00740548 -0.0539156 -0.000424889 0.0862815 -0.0638626 0.00432991 
0.0549533 -0.118806 -0.364633 0.00400956 -0.0145971 0.00290271 -0.00186263 -0.0229215 -0.00127109 
0.000844498 0.0304342 -0.0064126 0.289506 0.206612 -0.0172387 0.0495769 -0.0489485 0.00607018 
0.0099161 -0.0151843 0.000768351 -0.00979485 0.0762205 -0.0423992 -0.00895644 0.000311281 -0.00291372 
0.0320297 -0.0136992 -0.0150366 -0.025317 -0.00276131 -2.69569e-05 0.0665145 0.0302562 -9.11309e-05 
-0.0225486 0.00905299 0.00915997 -0.000275309 0.00667857 8.22018e-06 0.0108496 -0.00676439 0.010442 
-0.00912953 0.00222366 -0.000208104 0.00014398 0.00681054 -2.33424e-05 0.000564189 -0.00749046 0.000433966 
0.0389126 0.0236228 4.98269e-07 0.0280808 0.0241866 -7.41875e-05 0.0196358 -0.00141336 2.37909e-05 
0.0193878 -0.0139992 -0.000169391 0.0103623 -0.00385407 -6.34861e-05 0.00820706 -0.0206851 -1.17391e-05 
0.00956068 -0.0129927 0.000271848 0.0418936 -0.000669298 -2.01407e-05 0.00994773 0.00235997 -2.68457e-05 
-0.0854663 0.0663333 -0.00355312 0.0251198 -0.0122333 -4.15043e-05 0.000101015 0.00796218 -0.0182404 
0.0277519 -0.117127 -0.0868132 -0.0111335 0.027925 0.00161107 -0.0104759 0.0132781 -0.0150016 
0.0221486 -0.0427059 -3.1659e-07 0.00188747 0.0400453 0.000244897 -0.000725672 -0.0401231 -0.0185795 
0.022843 0.00986809 0.00710197 0.0689408 0.0345984 -0.0726478 0.0304312 0.040479 -0.000307343 
0.0505598 0.0318955 0.0268222 0.077561 -0.0654192 6.15613e-05 0.0548144 -0.0639756 0.00112462 
-0.00510925 -0.0255023 -0.000975644 0.0303521 -0.11205 -0.000397497 0.017094 0.00811861 0.000851273 
-0.0151079 -0.0257268 3.98726e-14 0.0546288 0.00593374 0.000511562 0.0616594 0.00348947 0.0102762 
0.000722868 -0.0332926 0.000292535 -6.42454e-05 -0.0601631 6.70955e-12 0.0432454 0.0259475 -0.000464059 
-0.00795084 -0.100686 -3.81173e-08 0.0342311 0.00239518 0.00438549 -0.00454627 -0.0380954 0.00836006 
-0.000277688 -0.0224516 -0.00101809 -0.0801058 -0.0407657 0.000259541 0.0121937 -0.0105312 0.000126836 
-0.00208289 -0.0147666 0.0106106 -0.0417256 -0.0761842 -0.00448871 -0.00123129 -0.0140914 0.0289271 
-0.00170209 -0.0341005 0.0261351 0.013439 -0.0137106 0.00767118 0.000982601 -0.01549 -0.00918039 
-0.0366521 0.0218836 -0.0644181 -3.1295e-05 -0.0153563 0.00190072 -0.0992011 -0.0370278 -0.0169531 
0.0607016 -0.0252341 -0.012766 0.039657 0.0126154 -0.0194371 0.012981 -0.017363 -0.000802847 
0.000725148 -0.0437608 0.0021408 0.0055161 -0.015854 0.000500327 0.00130881 -0.00455152 6.69101e-06 
0.0262041 -0.0156336 -0.00512568 -0.0492613 0.0676303 0.000523292 -0.016089 -0.0423837 -0.000689525 
-0.000361211 -0.00809569 -0.000220845 -0.0516087 0.0532162 1.54947e-11 0.0153597 -0.043948 -0.000190828 
0.00211278 -0.018462 0.00104385 -0.0701248 0.0257387 -0.00125094 7.35338e-05 0.000783802 1.13574e-11 
-0.00601369 0.128455 -1.09539e-11 0.0221776 -0.0295509 -0.00010298 0.0250802 -0.0352954 2.24979e-06 
0.0261369 -0.0242303 0.000128214 0.000594335 -0.0358194 0.000527687 -0.0175292 -0.0842118 -0.00483448 
-0.00105055 -0.0118746 -0.000821662 0.0134129 -0.114616 -0.0721406 0.0293026 -0.0704554 0.0109557 
0.000377282 -0.00967141 0.0130684 -0.00445289 -0.0235584 -0.000126616 0.0101959 -0.000273273 0.00900552 
-0.00066864 -0.0108269 -0.00570474 0.0335793 0.0588292 -0.0586023 0.00855407 -0.0104328 -0.00204992 