# vtk DataFile Version 4.0
Generated by LIGGGHTS
ASCII
DATASET POLYDATA
POINTS 538 float
0.0101736 0.0045528 0.0116574 0.00411844 0.00438003 0.0108755 0.00639195 0.00213943 0.0121393 
0.00310538 0.00662168 0.0116573 0.000677978 0.00743056 0.010678 0.00687021 0.00651833 0.0121393 
0.00217487 0.00344759 0.0106779 0.00421212 0.000770792 0.0107705 0.000770968 0.00598805 0.0107704 
0.00220455 0.00145879 0.0114587 0.00565855 0.00443626 0.010678 0.00389408 0.00275264 0.0107705 
0.0079435 0.00418554 0.0107704 0.000770482 0.00302071 0.0107704 0.000770469 0.000770481 0.0130206 
0.0011882 0.004504 0.0107704 0.00261932 0.000994456 0.0138317 0.000875474 0.00312559 0.0124097 
0.002693 0.00462077 0.0105965 0.0025132 0.00409092 0.0121841 0.00439978 0.00457256 0.0130342 
0.00830727 0.0041458 0.0133208 0.000994432 0.00668503 0.0132612 0.00348033 0.0026624 0.013174 
0.00985915 0.0014588 0.0114587 0.00077049 0.00518726 0.012087 0.0102108 0.00752955 0.0125157 
0.00217759 0.00527517 0.0135918 0.0087938 0.000875471 0.0134521 0.0114725 0.000994482 0.0132476 
0.000770497 0.00441871 0.0134226 0.00958231 0.00688835 0.0108754 0.0113908 0.00680598 0.013773 
0.0120241 0.00571409 0.0127166 0.0120406 0.00582648 0.0107704 0.0125911 0.00128397 0.0112839 
0.0152142 0.00618534 0.01113 0.0224764 0.00366767 0.0114587 0.0165707 0.00400493 0.0114587 
0.019333 0.00448428 0.0112839 0.0228699 0.00113005 0.01113 0.014513 0.000770451 0.0107704 
0.0160451 0.00195073 0.0107704 0.0208895 0.000875491 0.0108754 0.0215052 0.0055855 0.010678 
0.0167303 0.000677953 0.010678 0.0186107 0.00165746 0.0116574 0.0228699 0.00786641 0.01113 
0.0169888 0.0075301 0.0120817 0.0177721 0.00591947 0.0108754 0.0227266 0.00632646 0.0127781 
0.0134614 0.00406879 0.0116574 0.0198529 0.00717203 0.0114587 0.0230055 0.00192027 0.0130974 
0.0231245 0.00583303 0.0108754 0.0230055 0.00444494 0.0137247 0.0210589 0.00534068 0.0122591 
0.0150693 0.00163287 0.0127494 0.0214581 0.000875485 0.0125315 0.0129695 0.00804924 0.011883 
0.0200652 0.000994483 0.0137734 0.00902606 0.00903637 0.0112839 0.00462438 0.0121603 0.0112839 
0.00790221 0.0142034 0.0121393 0.0063526 0.00887083 0.0106779 0.00423293 0.0150523 0.0116573 
0.0111479 0.0108188 0.0114587 0.00444352 0.00942904 0.0114587 0.00113003 0.0118067 0.01113 
0.0014588 0.00925994 0.0114587 0.00835286 0.0118171 0.010678 0.000770473 0.013638 0.0107704 
0.00192419 0.015741 0.0108754 0.00969197 0.0123619 0.0107705 0.00113063 0.0146347 0.012348 
0.00688938 0.010658 0.0112839 0.0102695 0.00932779 0.0130252 0.000677984 0.0128912 0.0125043 
0.00286675 0.0108342 0.0127069 0.0088359 0.0110043 0.0129226 0.0115228 0.0131985 0.0109944 
0.0026057 0.012924 0.0124269 0.00604518 0.0118438 0.0130367 0.00297894 0.0171478 0.0130016 
0.0106881 0.00796214 0.010678 0.00450169 0.0130516 0.0133772 0.0107054 0.0150117 0.0109944 
0.000525484 0.0154617 0.010525 0.000770481 0.0161539 0.0134316 0.0113291 0.014202 0.0125604 
0.0184467 0.010922 0.0119424 0.01556 0.00893281 0.0109944 0.0164037 0.00964968 0.0126787 
0.0173351 0.0154368 0.0112839 0.0142109 0.0113574 0.0116574 0.0205181 0.0107042 0.0109944 
0.0152995 0.0163887 0.0108754 0.0183684 0.00926748 0.01113 0.0218732 0.0126973 0.0114587 
0.0188926 0.0109379 0.010678 0.0212174 0.00897396 0.0108755 0.0169256 0.0110072 0.01113 
0.022869 0.0101968 0.01113 0.0204335 0.0157047 0.011883 0.0159635 0.0145605 0.012703 
0.0186478 0.0129119 0.0114587 0.0161134 0.0133253 0.01113 0.0230055 0.0139727 0.0132221 
0.0125093 0.0104127 0.0134588 0.0142553 0.01574 0.01373 0.0201594 0.0112853 0.0133512 
0.0231245 0.0145796 0.0108754 0.0150248 0.0131762 0.0132211 0.0232295 0.0154435 0.0122726 
0.0146818 0.00958563 0.0134052 0.0136574 0.0146257 0.0116574 0.0230056 0.0166397 0.0109944 
0.00109878 0.0173299 0.0123277 0.00630984 0.0166485 0.0109944 0.010072 0.0168105 0.0133403 
0.000770462 0.0169102 0.0107704 0.00629623 0.0239028 0.0114587 0.00308843 0.0197508 0.0109944 
0.00828276 0.0243937 0.010678 0.00128397 0.0213424 0.0112839 0.00697546 0.0212934 0.0108754 
0.0040788 0.022298 0.0112839 0.00113007 0.0189382 0.01113 0.00241698 0.0174212 0.0108755 
0.00529978 0.0202213 0.01113 0.0100149 0.0200749 0.0107704 0.010429 0.0184853 0.0108754 
0.00278755 0.0230219 0.0133821 0.00899519 0.0165742 0.0107705 0.000770483 0.0232642 0.0107704 
0.00607476 0.0216779 0.0124684 0.00302092 0.0208272 0.0126655 0.00789183 0.0188821 0.011883 
0.00446776 0.0179605 0.0112839 0.00930381 0.0223766 0.011883 0.00471706 0.0194676 0.013348 
0.000994389 0.0239903 0.0123634 0.0057205 0.0170265 0.0126177 0.0044701 0.0216791 0.0132034 
0.00465292 0.0234652 0.0127526 0.010136 0.0245891 0.0128689 0.00806515 0.0246047 0.0126198 
0.011041 0.0244916 0.0109944 0.00291069 0.0245848 0.0112839 0.0117893 0.0238417 0.0128735 
0.0119396 0.0229009 0.010678 0.000875531 0.0251805 0.0108755 0.0118822 0.0169411 0.0112839 
0.01586 0.0167433 0.0129305 0.0122333 0.0185923 0.0124548 0.013293 0.0167956 0.0129123 
0.0170459 0.0178294 0.01113 0.0136886 0.0224597 0.0109944 0.014985 0.0240108 0.0109944 
0.0231226 0.0227573 0.0108755 0.0194329 0.018703 0.0112839 0.0120907 0.0205816 0.0114587 
0.0154044 0.0228227 0.012705 0.0181913 0.0218483 0.0107703 0.0169663 0.0232562 0.01113 
0.0186039 0.0170312 0.0106779 0.0233348 0.0213265 0.0105965 0.0223214 0.0191146 0.0116574 
0.0142155 0.0183721 0.0114588 0.0155766 0.0213607 0.0107705 0.0160616 0.0194149 0.0107703 
0.0205763 0.022187 0.011883 0.0145705 0.0209454 0.0121602 0.0231245 0.0170138 0.0128226 
0.0140669 0.0203557 0.010678 0.017321 0.0204613 0.0128583 0.0129065 0.0223341 0.0125716 
0.0175112 0.0252798 0.0128868 0.0181461 0.0233497 0.0128944 0.0231246 0.0213525 0.0125306 
0.0230056 0.0231285 0.0131046 0.00935151 0.0264252 0.0116574 0.0094655 0.0286837 0.0107704 
0.0074765 0.0286605 0.0112839 0.00865439 0.0322179 0.01113 0.00131118 0.0320476 0.0112839 
0.00338535 0.0271085 0.0112839 0.000994459 0.027043 0.0109944 0.00535612 0.0286749 0.0108754 
0.00610054 0.0312332 0.0116574 0.00590781 0.0266274 0.0112839 0.0107119 0.0312824 0.01113 
0.00888966 0.0302425 0.0108754 0.00165735 0.0292879 0.012241 0.0045522 0.0253964 0.0130842 
0.00392396 0.0298712 0.0109943 0.00490752 0.0282361 0.0127802 0.00159706 0.0259925 0.01274 
0.00331039 0.0312051 0.0121524 0.00712419 0.0261079 0.0133033 0.00742473 0.0255407 0.0106779 
0.00077047 0.0274764 0.0135926 0.00214208 0.0335961 0.0117133 0.0034859 0.0326628 0.0109944 
0.00933908 0.0293108 0.0122881 0.000596483 0.0311962 0.0128006 0.0124169 0.0313455 0.0128378 
0.0117248 0.0287395 0.0116574 0.00762066 0.033408 0.0121918 0.00703707 0.0332902 0.0107704 
0.0116109 0.0264823 0.0107704 0.000875473 0.0335933 0.0127276 0.0189717 0.0262449 0.0125948 
0.0121391 0.0306618 0.010525 0.0223426 0.0252495 0.0116574 0.0130247 0.0243471 0.0109944 
0.0165647 0.0254803 0.01113 0.0127398 0.0260849 0.0124402 0.0201801 0.0260588 0.0120086 
0.0151296 0.0250738 0.0128282 0.0188724 0.0247885 0.0112839 0.0144946 0.0259386 0.0109944 
0.0157916 0.0274545 0.0109944 0.0180503 0.0273771 0.0112839 0.0144397 0.0290878 0.01113 
0.0131114 0.0324905 0.0109944 0.0225412 0.0314067 0.0114587 0.019805 0.026543 0.010678 
0.0153091 0.031504 0.0114587 0.0196262 0.0315359 0.0114587 0.0234023 0.0269694 0.0105965 
0.0165188 0.0291727 0.0120122 0.013558 0.0274176 0.0107704 0.0184167 0.0292723 0.0120023 
0.0172932 0.0317671 0.010678 0.0232658 0.0282344 0.010678 0.0209519 0.0284977 0.011883 
0.0135419 0.030591 0.010678 0.0177526 0.0302715 0.0108754 0.0174709 0.0310796 0.0125381 
0.0143902 0.0274349 0.0120672 0.0198388 0.0333983 0.0130686 0.0198098 0.0336482 0.0107704 
0.023322 0.0331042 0.0124955 0.0232295 0.0273193 0.0125652 0.000994466 0.0342854 0.0109944 
0.000875464 0.0361478 0.0108754 0.00274477 0.0342488 0.0107704 0.000875452 0.0378987 0.0108754 
0.00604436 0.0355114 0.010678 0.0114717 0.0406956 0.0121393 0.00785979 0.0349661 0.01113 
0.00691517 0.0375352 0.0116573 0.00387942 0.0362035 0.0116574 0.00680629 0.0408493 0.0116573 
0.00940915 0.0366103 0.0109944 0.00395717 0.0393125 0.0114587 0.00938868 0.0386164 0.0109944 
0.00128397 0.0399795 0.0112839 0.00525225 0.0338356 0.01113 0.0012844 0.0357022 0.0129484 
0.010499 0.0342401 0.0116574 0.00488819 0.03803 0.0135058 0.00481756 0.0405177 0.0135823 
0.00197985 0.0380412 0.0125434 0.00903827 0.040118 0.0105965 0.00866355 0.0392515 0.012987 
0.00621962 0.0351766 0.0122649 0.00910336 0.0413904 0.010678 0.0129059 0.0343452 0.0108754 
0.00260224 0.0407005 0.0131733 0.0174342 0.034048 0.011883 0.0147012 0.0338351 0.0109944 
0.0212212 0.0334445 0.0118103 0.0139277 0.0391541 0.0130691 0.0181122 0.0366997 0.0109944 
0.0230056 0.0337704 0.0109944 0.0128117 0.0369115 0.011883 0.0157079 0.0376955 0.0109944 
0.0139928 0.0411836 0.0107704 0.0196689 0.0389618 0.011883 0.0203081 0.0357091 0.0114588 
0.0232295 0.0402123 0.0107705 0.0152886 0.0357473 0.0109944 0.0173584 0.0382797 0.0107704 
0.022716 0.0382905 0.0112839 0.0228699 0.0358863 0.01113 0.0178438 0.0407922 0.0108754 
0.0223748 0.040233 0.0129283 0.0143959 0.0393615 0.01113 0.0162621 0.0393626 0.0107704 
0.0158795 0.0411892 0.01113 0.0170659 0.0398428 0.0121242 0.0154817 0.036725 0.0122346 
0.0143606 0.0410232 0.0122602 0.0057965 0.049122 0.0120274 0.00336723 0.04995 0.0133766 
0.00759447 0.0427226 0.01317 0.00387476 0.045879 0.0122777 0.00871702 0.048407 0.0125312 
0.00593263 0.0476341 0.0127788 0.00929036 0.046711 0.0121681 0.00468165 0.0435348 0.0128194 
0.00670968 0.0435721 0.0120725 0.00270875 0.0462088 0.0109944 0.0107454 0.0479775 0.0114587 
0.00140719 0.0454883 0.0123146 0.000875428 0.0465573 0.0108754 0.00132615 0.0480666 0.0123524 
0.00370544 0.0444876 0.0109944 0.000770432 0.0449182 0.0107704 0.0070779 0.0494184 0.0109944 
0.00171527 0.0428651 0.0116574 0.0112739 0.0447051 0.011883 0.00849236 0.0455856 0.01113 
0.00592449 0.0455662 0.0114587 0.00797563 0.0476419 0.0109944 0.00390897 0.0482975 0.0114587 
0.00611779 0.0478182 0.0108754 0.00856521 0.0431772 0.0112839 0.00560655 0.0433285 0.0108754 
[...]
POINT_DATA 538
FIELD FieldData 7
id 1 538 int
1 2 3 4 5 6 7 8 9 
10 11 12 13 14 15 16 17 18 
19 20 21 22 24 25 26 29 31 
33 34 35 38 39 45 55 56 57 
58 59 60 61 62 63 64 65 66 
67 68 69 70 71 72 73 76 77 
80 81 82 85 90 95 96 106 107 
108 109 110 111 112 113 114 115 116 
117 118 119 120 121 122 124 126 128 
129 131 132 133 134 141 144 155 162 
163 164 165 166 167 168 169 170 171 
172 173 174 175 176 177 178 179 181 
184 187 190 191 192 194 197 198 200 
219 220 222 223 224 225 226 227 228 
229 230 231 232 233 234 235 236 237 
238 239 240 241 242 244 245 248 250 
251 254 262 264 265 270 273 275 276 
279 283 284 285 286 287 288 289 290 
291 292 293 294 295 296 297 298 299 
300 301 302 303 305 306 308 309 310 
317 330 331 332 333 334 335 336 337 
338 339 340 341 342 343 344 346 347 
348 349 351 353 357 359 362 366 368 
375 376 379 380 382 385 386 387 388 
389 390 391 392 393 394 395 396 397 
398 399 400 401 402 403 404 405 406 
408 409 410 411 413 415 416 417 418 
419 421 435 436 437 439 440 441 442 
443 444 445 446 447 448 449 450 451 
453 455 456 457 458 459 460 466 478 
479 497 498 499 500 501 502 503 504 
505 506 507 508 509 510 511 513 514 
515 516 517 522 523 524 535 486 487 
488 489 490 491 492 493 494 495 496 
512 518 519 520 521 525 526 527 528 
529 530 531 532 533 534 536 537 538 
438 452 454 461 462 463 464 465 467 
468 469 470 471 472 473 474 475 476 
477 480 481 482 483 484 485 355 356 
358 360 361 363 364 365 367 369 370 
371 372 373 374 377 378 381 383 384 
407 412 414 420 422 423 424 425 426 
427 428 429 430 431 432 433 434 266 
267 268 269 271 272 274 277 278 280 
281 282 304 307 311 312 313 314 315 
316 318 319 320 321 322 323 324 325 
326 327 328 329 345 350 352 354 207 
208 209 210 211 212 213 214 215 216 
217 218 221 243 246 247 249 252 253 
255 256 257 258 259 260 261 263 142 
143 145 146 147 148 149 150 151 152 
153 154 156 157 158 159 160 161 180 
182 183 185 186 188 189 193 195 196 
199 201 202 203 204 205 206 86 87 
88 89 91 92 93 94 97 98 99 
100 101 102 103 104 105 123 125 127 
130 135 136 137 138 139 140 23 27 
28 30 32 36 37 40 41 42 43 
44 46 47 48 49 50 51 52 53 
54 74 75 78 79 83 84 
type 1 538 int
1 1 1 1 1 1 1 1 1 
1 1 1 1 1 1 1 1 1 
1 1 1 1 1 1 1 1 1 
1 1 1 1 1 1 1 1 1 
1 1 1 1 1 1 1 1 1 
1 1 1 1 1 1 1 1 1 
1 1 1 1 1 1 1 1 1 
1 1 1 1 1 1 1 1 1 
1 1 1 1 1 1 1 1 1 
1 1 1 1 1 1 1 1 1 
1 1 1 1 1 1 1 1 1 
1 1 1 1 1 1 1 1 1 
1 1 1 1 1 1 1 1 1 
1 1 1 1 1 1 1 1 1 
1 1 1 1 1 1 1 1 1 
1 1 1 1 1 1 1 1 1 
1 1 1 1 1 1 1 1 1 
1 1 1 1 1 1 1 1 1 
1 1 1 1 1 1 1 1 1 
1 1 1 1 1 1 1 1 1 
1 1 1 1 1 1 1 1 1 
1 1 1 1 1 1 1 1 1 
1 1 1 1 1 1 1 1 1 
1 1 1 1 1 1 1 1 1 
1 1 1 1 1 1 1 1 1 
1 1 1 1 1 1 1 1 1 
1 1 1 1 1 1 1 1 1 
1 1 1 1 1 1 1 1 1 
1 1 1 1 1 1 1 1 1 
1 1 1 1 1 1 1 1 1 
1 1 1 1 1 1 1 1 1 
1 1 1 1 1 1 1 1 1 
1 1 1 1 1 1 1 1 1 
1 1 1 1 1 1 1 1 1 
1 1 1 1 1 1 1 1 1 
1 1 1 1 1 1 1 1 1 
1 1 1 1 1 1 1 1 1 
1 1 1 1 1 1 1 1 1 
1 1 1 1 1 1 1 1 1 
1 1 1 1 1 1 1 1 1 
1 1 1 1 1 1 1 1 1 
1 1 1 1 1 1 1 1 1 
1 1 1 1 1 1 1 1 1 
1 1 1 1 1 1 1 1 1 
1 1 1 1 1 1 1 1 1 
1 1 1 1 1 1 1 1 1 
1 1 1 1 1 1 1 1 1 
1 1 1 1 1 1 1 1 1 
1 1 1 1 1 1 1 1 1 
1 1 1 1 1 1 1 1 1 
1 1 1 1 1 1 1 1 1 
1 1 1 1 1 1 1 1 1 
1 1 1 1 1 1 1 1 1 
1 1 1 1 1 1 1 1 1 
1 1 1 1 1 1 1 1 1 
1 1 1 1 1 1 1 1 1 
1 1 1 1 1 1 1 1 1 
1 1 1 1 1 1 1 1 1 
1 1 1 1 1 1 1 1 1 
1 1 1 1 1 1 1 
i 3 538 int
0 0 0 0 0 0 0 0 0 
0 0 0 0 0 0 0 0 0 
0 0 0 0 0 0 0 0 0 
0 0 0 0 0 0 0 0 0 
0 0 0 0 0 0 0 0 0 
0 0 0 0 0 0 0 0 0 
0 0 0 0 0 0 0 0 0 
0 0 0 0 0 0 0 0 0 
0 0 0 0 0 0 0 0 0 
0 0 0 0 0 0 0 0 0 
0 0 0 0 0 0 0 0 0 
0 0 0 0 0 0 0 0 0 
0 0 0 0 0 0 0 0 0 
0 0 0 0 0 0 0 0 0 
0 0 0 0 0 0 0 0 0 
0 0 0 0 0 0 0 0 0 
0 0 0 0 0 0 0 0 0 
0 0 0 0 0 0 0 0 0 
0 0 0 0 0 0 0 0 0 
0 0 0 0 0 0 0 0 0 
0 0 0 0 0 0 0 0 0 
0 0 0 0 0 0 0 0 0 
0 0 0 0 0 0 0 0 0 
0 0 0 0 0 0 0 0 0 
0 0 0 0 0 0 0 0 0 
0 0 0 0 0 0 0 0 0 
0 0 0 0 0 0 0 0 0 
0 0 0 0 0 0 0 0 0 
0 0 0 0 0 0 0 0 0 
0 0 0 0 0 0 0 0 0 
0 0 0 0 0 0 0 0 0 
0 0 0 0 0 0 0 0 0 
0 0 0 0 0 0 0 0 0 
0 0 0 0 0 0 0 0 0 
0 0 0 0 0 0 0 0 0 
0 0 0 0 0 0 0 0 0 
0 0 0 0 0 0 0 0 0 
0 0 0 0 0 0 0 0 0 
0 0 0 0 0 0 0 0 0 
0 0 0 0 0 0 0 0 0 
0 0 0 0 0 0 0 0 0 
0 0 0 0 0 0 0 0 0 
0 0 0 0 0 0 0 0 0 
0 0 0 0 0 0 0 0 0 
0 0 0 0 0 0 0 0 0 
0 0 0 0 0 0 0 0 0 
0 0 0 0 0 0 0 0 0 
0 0 0 0 0 0 0 0 0 
0 0 0 0 0 0 0 0 0 
0 0 0 0 0 0 0 0 0 
0 0 0 0 0 0 0 0 0 
0 0 0 0 0 0 0 0 0 
0 0 0 0 0 0 0 0 0 
0 0 0 0 0 0 0 0 0 
0 0 0 0 0 0 0 0 0 
0 0 0 0 0 0 0 0 0 
0 0 0 0 0 0 0 0 0 
0 0 0 0 0 0 0 0 0 
0 0 0 0 0 0 0 0 0 
0 0 0 0 0 0 0 0 0 
0 0 0 0 0 0 0 0 0 
0 0 0 0 0 0 0 0 0 
0 0 0 0 0 0 0 0 0 
0 0 0 0 0 0 0 0 0 
0 0 0 0 0 0 0 0 0 
0 0 0 0 0 0 0 0 0 
0 0 0 0 0 0 0 0 0 
0 0 0 0 0 0 0 0 0 
0 0 0 0 0 0 0 0 0 
0 0 0 0 0 0 0 0 0 
0 0 0 0 0 0 0 0 0 
0 0 0 0 0 0 0 0 0 
0 0 0 0 0 0 0 0 0 
0 0 0 0 0 0 0 0 0 
0 0 0 0 0 0 0 0 0 
0 0 0 0 0 0 0 0 0 
0 0 0 0 0 0 0 0 0 
0 0 0 0 0 0 0 0 0 
0 0 0 0 0 0 0 0 0 
0 0 0 0 0 0 0 0 0 
0 0 0 0 0 0 0 0 0 
0 0 0 0 0 0 0 0 0 
0 0 0 0 0 0 0 0 0 
0 0 0 0 0 0 0 0 0 
0 0 0 0 0 0 0 0 0 
0 0 0 0 0 0 0 0 0 
0 0 0 0 0 0 0 0 0 
0 0 0 0 0 0 0 0 0 
0 0 0 0 0 0 0 0 0 
0 0 0 0 0 0 0 0 0 
0 0 0 0 0 0 0 0 0 
0 0 0 0 0 0 0 0 0 
0 0 0 0 0 0 0 0 0 
0 0 0 0 0 0 0 0 0 
0 0 0 0 0 0 0 0 0 
0 0 0 0 0 0 0 0 0 
0 0 0 0 0 0 0 0 0 
0 0 0 0 0 0 0 0 0 
0 0 0 0 0 0 0 0 0 
0 0 0 0 0 0 0 0 0 
0 0 0 0 0 0 0 0 0 
0 0 0 0 0 0 0 0 0 
0 0 0 0 0 0 0 0 0 
0 0 0 0 0 0 0 0 0 
0 0 0 0 0 0 0 0 0 
0 0 0 0 0 0 0 0 0 
0 0 0 0 0 0 0 0 0 
0 0 0 0 0 0 0 0 0 
0 0 0 0 0 0 0 0 0 
0 0 0 0 0 0 0 0 0 
0 0 0 0 0 0 0 0 0 
0 0 0 0 0 0 0 0 0 
0 0 0 0 0 0 0 0 0 
0 0 0 0 0 0 0 0 0 
0 0 0 0 0 0 0 0 0 
0 0 0 0 0 0 0 0 0 
0 0 0 0 0 0 0 0 0 
0 0 0 0 0 0 0 0 0 
0 0 0 0 0 0 0 0 0 
0 0 0 0 0 0 0 0 0 
0 0 0 0 0 0 0 0 0 
0 0 0 0 0 0 0 0 0 
0 0 0 0 0 0 0 0 0 
0 0 0 0 0 0 0 0 0 
0 0 0 0 0 0 0 0 0 
0 0 0 0 0 0 0 0 0 
0 0 0 0 0 0 0 0 0 
0 0 0 0 0 0 0 0 0 
0 0 0 0 0 0 0 0 0 
0 0 0 0 0 0 0 0 0 
0 0 0 0 0 0 0 0 0 
0 0 0 0 0 0 0 0 0 
0 0 0 0 0 0 0 0 0 
0 0 0 0 0 0 0 0 0 
0 0 0 0 0 0 0 0 0 
0 0 0 0 0 0 0 0 0 
0 0 0 0 0 0 0 0 0 
0 0 0 0 0 0 0 0 0 
0 0 0 0 0 0 0 0 0 
0 0 0 0 0 0 0 0 0 
0 0 0 0 0 0 0 0 0 
0 0 0 0 0 0 0 0 0 
0 0 0 0 0 0 0 0 0 
0 0 0 0 0 0 0 0 0 
0 0 0 0 0 0 0 0 0 
0 0 0 0 0 0 0 0 0 
0 0 0 0 0 0 0 0 0 
0 0 0 0 0 0 0 0 0 
0 0 0 0 0 0 0 0 0 
0 0 0 0 0 0 0 0 0 
0 0 0 0 0 0 0 0 0 
0 0 0 0 0 0 0 0 0 
0 0 0 0 0 0 0 0 0 
0 0 0 0 0 0 0 0 0 
0 0 0 0 0 0 0 0 0 
0 0 0 0 0 0 0 0 0 
0 0 0 0 0 0 0 0 0 
0 0 0 0 0 0 0 0 0 
0 0 0 0 0 0 0 0 0 
0 0 0 0 0 0 0 0 0 
0 0 0 0 0 0 0 0 0 
0 0 0 0 0 0 0 0 0 
0 0 0 0 0 0 0 0 0 
0 0 0 0 0 0 0 0 0 
0 0 0 0 0 0 0 0 0 
0 0 0 0 0 0 0 0 0 
0 0 0 0 0 0 0 0 0 
0 0 0 0 0 0 0 0 0 
0 0 0 0 0 0 0 0 0 
0 0 0 0 0 0 0 0 0 
0 0 0 0 0 0 0 0 0 
0 0 0 0 0 0 0 0 0 
0 0 0 0 0 0 0 0 0 
0 0 0 0 0 0 0 0 0 
0 0 0 0 0 0 0 0 0 
0 0 0 0 0 0 0 0 0 
0 0 0 0 0 0 0 0 0 
0 0 0 0 0 0 0 0 0 
0 0 0 0 0 0 0 0 0 
0 0 0 
v 3 538 double
0.00104274 -0.00022632 6.57047e-05 2.21373e-05 -0.00061273 -1.72757e-11 0.00131914 -5.05464e-05 9.18371e-06 
0.00208513 -0.00184108 8.85942e-07 -2.45519e-05 -0.0033864 -2.50785e-05 0.00203143 -0.000664083 4.20028e-05 
0.000247591 -0.000114979 -0.000177649 -0.00945286 0.000324814 -5.75622e-12 0.00112589 -0.00328962 -2.31922e-05 
0.000525548 2.79249e-06 5.49006e-05 0.000478346 0.00262712 1.0161e-11 -0.00604296 -3.02274e-05 -9.27221e-12 
0.0013753 -0.000482308 -0.000179115 8.56833e-05 0.000211158 0.000121911 4.8617e-05 7.20708e-05 -0.000277915 
0.000718651 0.00028321 2.67029e-06 0.00175857 -0.000270798 -0.000187721 0.000375579 0.000292489 0.000145686 
0.00474419 0.0326943 -1.35548e-11 0.0026511 -0.00102168 -0.000666602 0.00206613 -0.00015552 0.00252876 
0.00158166 -0.000637983 0.000595713 1.00661e-05 0.086363 -0.00615725 0.00176777 -0.00050695 0.000153709 
0.00120386 -0.00011084 -1.72173e-05 4.12237e-05 -0.00173405 0.000853136 0.00704067 -0.00885594 0.00176916 
-0.0825817 0.0112651 -0.0313463 0.00127502 -2.64402e-05 3.75009e-05 0.00131764 -1.48181e-05 -0.000103756 
2.9918e-05 -0.000440317 0.0015167 0.00210638 2.4739e-05 8.65008e-05 0.00838141 -0.0055193 0.00244977 
0.00445169 -0.00574897 0.000244519 0.00448805 -0.00556851 -9.14346e-05 0.00142285 0.000156425 -1.78436e-05 
0.0291209 0.0208115 2.93562e-05 0.00863661 0.00164279 -2.52501e-05 0.00896842 0.00808733 5.17228e-05 
0.1589 -0.040968 -4.31548e-05 -5.37124e-05 6.55385e-05 4.09602e-05 0.00144513 3.98471e-05 8.55978e-05 
0.0140482 0.00717048 -0.00028136 -9.71465e-05 4.1839e-05 -1.586e-05 -0.0201906 0.0172757 5.53839e-12 
-4.27178e-05 -0.000142352 1.47649e-05 -0.000198758 -5.9998e-05 5.73099e-06 -7.18901e-05 0.0490989 -0.000151827 
0.0492179 0.0168063 -0.170458 0.13272 -0.0697909 -0.000171818 0.108744 0.0514409 0.0111185 
0.00877621 -0.00193239 1.2696e-05 -0.0161447 -0.00538525 -2.43561e-05 5.69714e-06 -0.000606923 0.000326369 
-6.24785e-05 0.00454678 0.000183085 2.61155e-05 0.0265509 -0.00656691 0.0972094 0.0727511 0.00870574 
0.0126273 -0.000567605 -0.00260424 -0.000221909 5.10873e-05 -2.37437e-05 0.00620221 -0.00647893 3.46364e-05 
-0.000236995 -4.98053e-05 7.8626e-06 0.0102872 -0.00807781 -0.000192823 -0.0162297 -0.00352117 3.35309e-05 
-0.00596311 -0.0155465 -6.32748e-05 0.0119722 0.00189406 0.000187674 -0.00270616 -0.0012318 6.6119e-05 
0.00553621 -0.00682774 8.89529e-05 0.00962519 -0.00527731 2.12586e-06 -4.24218e-05 -0.00388123 -9.8888e-05 
-4.16784e-05 -0.00349077 7.40218e-05 0.0062766 0.0081862 -7.97375e-12 1.41854e-05 -0.00384957 2.87654e-05 
0.00431438 0.021637 -0.000295454 0.00992864 0.00164275 -0.000265311 0.00352664 0.0106081 -0.00983287 
0.00527201 0.00414046 0.000125963 0.00919747 -0.00852286 0.000579736 -6.93967e-06 0.0114438 -0.0122537 
0.00567758 0.00159805 -0.0125414 0.00649217 -0.0111186 0.00242989 0.0131437 -0.00787975 -2.18428e-05 
-0.00643825 0.00217744 0.0016228 -0.015585 -0.00848235 -0.00135434 -0.173013 -0.00471032 -0.153256 
-0.0200811 0.0211069 1.72726e-11 -0.0050209 -0.00169549 -8.14522e-05 -0.00521993 -0.0157963 0.000216092 
0.000363341 -0.124285 1.63097e-11 4.29165e-05 -0.0183106 0.0295728 0.0108294 -0.0065277 -0.00127707 
-0.069574 0.137645 0.157516 -0.0221044 0.0761026 -5.35473e-05 0.0713459 -0.0249319 -0.00153629 
-0.00596724 0.0232437 6.04092e-05 0.00542704 -0.0060895 -1.17082e-05 -0.0150945 0.0115153 -3.83854e-05 
-0.0066477 0.0119772 -0.000181934 0.095346 0.0743199 0.000134555 -0.0415936 0.0334835 -0.000174649 
-0.00184472 0.106491 -0.000304233 -0.0298098 0.00524053 6.06942e-05 0.00654389 0.00111089 -0.000110908 
-0.000235959 0.0300338 1.18553e-12 -0.00706816 0.0389108 -0.000125516 -0.00148299 0.0680423 0.0322326 
-0.102276 0.0995233 0.000457182 -0.102715 0.0976574 -0.000192732 0.000617549 0.0133533 -0.0135465 
0.00595545 -0.00643841 9.1076e-06 -0.00364783 -0.00300874 0.003383 -0.100628 0.053807 -0.038356 
-0.00114236 0.00910156 0.000812665 0.0590774 0.00120249 -0.0364697 0.000367537 0.0189814 -0.00376545 
0.0571888 -0.0278809 -0.0358922 0.0109749 -0.00463599 -8.24959e-06 -0.000396179 0.0212183 -0.000386656 
-0.236048 0.0568228 0.0391106 0.001509 -0.00612521 -1.65167e-11 -0.00555084 -0.0156952 -0.00094343 
1.96861e-05 0.0176409 -3.51622e-05 -0.00337015 -0.0111744 -0.00018397 0.00796982 0.00316951 9.60194e-06 
-0.0116738 -0.0154511 -9.04049e-12 0.000122852 0.0230021 5.01288e-05 0.00945259 -0.0104315 0.000146787 
-0.00581861 -0.0084571 8.98757e-05 -0.000529981 0.0234766 0.000132603 -0.00275759 0.0225971 -0.000215818 
0.00430282 -0.00246914 -9.12187e-05 0.0113903 -0.00649431 8.19088e-05 0.00184042 -0.00920503 6.47505e-05 
-0.023544 -0.0269652 -0.00435327 -0.00423494 -0.0242151 5.75064e-12 -7.99131e-05 0.0228497 5.02791e-05 
0.0143642 -0.0112302 0.00336178 -0.009845 -0.00285274 0.00315577 0.00196072 -0.00689428 3.63169e-06 
0.00215187 -0.00152658 3.67829e-05 0.00818908 -0.00713902 -0.000193247 -0.00467809 0.00117909 -0.00119464 
-0.000164126 0.0215133 0.000767434 0.0337563 -0.0271375 -0.0476895 0.00870667 -0.0268072 -0.00879159 
0.0427862 -0.077653 0.0359625 0.317346 -0.017607 -0.237538 0.00393944 -0.00487218 -0.0152822 
-0.00130889 0.00142682 0.000692209 0.00651556 -0.00218895 -3.90184e-05 0.294881 -0.151659 -0.1687 
0.0785793 -0.0147958 6.24955e-12 0.000670892 -0.0230511 -1.42486e-07 -0.00447155 -0.0156538 -8.83685e-06 
-0.0141835 0.0124269 0.00155617 -0.007029 -0.0374613 0.0317261 -0.000436316 -0.00503079 -0.00259725 
-0.0268439 0.0237726 -6.07524e-05 0.133012 0.000231225 0.0037487 -0.000409035 0.00500764 0.000403932 
-0.000352052 -0.014517 3.70118e-12 0.00985406 -0.0406235 9.86586e-05 -0.0222273 -0.0544114 -4.63793e-05 
-0.0158299 -0.0278443 -0.0182052 0.00219664 -0.00154307 -0.000293143 -0.00447584 -0.00755061 -0.000371436 
-0.0455111 -0.013343 0.000190255 -0.00037675 -0.0147286 6.22669e-12 0.001346 0.0213484 -4.10587e-05 
-0.0182358 0.00719146 -0.000151139 -0.0862775 -0.0357917 0.00258981 -0.0275861 0.0236216 -2.19724e-05 
-0.00114101 0.0193342 8.5451e-05 -0.0453081 -0.0587771 0.0485871 0.000227632 0.0208185 -0.000439939 
-0.0110135 0.0110196 -0.00095438 0.0203447 -0.0215956 -0.00645375 0.205184 -0.26069 0.0239546 
0.0179835 0.100748 -0.0049056 -0.00510857 0.0121325 -0.000912201 -0.000212141 0.0218211 0.000582126 
2.33945e-05 0.00853636 0.00590934 0.00185972 0.00442539 0.000158161 -0.00304116 0.00124346 0.000420972 
-0.0039459 -0.00169512 -0.00051018 0.0153986 -0.0130701 -9.50824e-05 0.00569126 0.00166281 -4.77038e-05 
0.016252 -0.00420845 -0.000120504 -1.15674e-05 -0.0193431 4.35832e-06 -0.00427052 -0.0213047 0.000140594 
0.00850742 0.00457465 -0.000125923 0.01424 -0.0164001 -0.000251877 0.0293446 0.0201602 -0.000264474 
0.00132114 -0.0163449 0.00118667 0.000273611 -0.00682146 -0.0228609 0.0503219 -0.0695517 -0.0095025 
0.0120138 -0.00162511 0.00027825 0.0204256 -0.0193892 0.00660097 0.0299716 0.0112254 0.00809714 
-0.00192274 -0.00394761 -0.00460721 0.00791501 -0.0117685 0.00464783 0.0122622 -0.0207205 0.000596955 
-4.50404e-06 0.00404207 -0.00845735 -0.00155781 0.00404567 0.00538444 0.00755644 -0.00137491 6.6056e-06 
-0.00987898 -0.0235878 0.00163289 1.08681e-05 -0.0108095 -0.00971687 0.0322829 -0.0148634 -0.00256488 
-0.00221127 0.00820609 -0.000277404 0.0224736 -0.00113957 -0.00659823 0.00554328 0.00614761 -0.000102707 
0.00116874 0.00829724 4.05875e-06 -1.79719e-05 0.00012511 -0.000222339 0.00406399 0.00407269 0.0104098 
0.00692655 -0.0789447 -1.36135e-11 0.000762972 0.00510618 -7.2438e-05 -0.00109758 0.00390967 0.000237227 
-0.0149872 -0.0100096 0.000150147 -0.00750193 0.000487679 0.00384132 0.00110777 0.000115042 0.00747088 
-0.0164457 0.00413243 0.00250781 -0.00807455 0.0142259 -0.000222608 -0.0121194 0.000754171 -0.000460453 
-0.00317191 -0.00575832 6.05308e-05 -0.00315516 -0.0140591 -4.84828e-05 -0.000758752 -0.00397477 -6.42015e-05 
0.0189251 -0.000282126 0.000512773 -0.000684782 -0.000905132 1.54796e-06 0.0692685 -0.0580612 5.60234e-13 
0.0152189 -0.0102469 2.4315e-05 -0.00865589 0.00491794 0.000609757 -0.000343212 0.0466056 -9.2029e-12 
0.00402898 0.00149582 -0.0132181 -0.000855729 0.00862061 0.000242561 0.00307836 0.043525 -0.00172668 
0.0402362 0.0035672 -1.50931e-13 -0.0125445 0.0453309 -1.01072e-11 -0.00862934 0.00264552 1.9724e-06 
0.0106485 -0.00116937 -1.01592e-05 -0.0205198 0.0294522 -0.00152516 0.00482627 -0.00714262 0.0217418 
-0.002332 -0.000514469 0.00142013 -0.00748455 -0.0565005 -0.0100121 0.000806994 -0.000411197 -0.00199357 
-6.59922e-05 -0.00104243 -0.000263621 0.000606573 0.0116718 -0.0168404 -4.13229e-05 0.00104924 4.46841e-05 
-7.76509e-05 0.00121184 1.47538e-05 -0.000203853 -0.00501765 -1.93668e-05 8.17207e-05 0.0012253 8.51627e-05 
0.00705835 0.0269248 -1.15296e-11 -0.00365184 -0.000419532 -3.29045e-05 0.0146223 0.00477772 8.24723e-06 
-0.00554814 -0.00262069 2.83383e-05 -0.00516573 -0.00217454 -3.23038e-05 0.0090013 -0.00171076 3.2303e-05 
0.0331412 0.020499 1.73007e-11 0.00186408 -0.00240054 -7.05306e-05 -0.028495 -0.000793329 7.62993e-13 
-2.69902e-05 0.00130177 1.35842e-05 0.00440607 0.00329916 2.65959e-05 -0.00515319 0.000936816 0.000967599 
0.011086 -0.00813769 -0.000116771 -0.00453183 -0.00415534 0.00163926 0.00368534 0.00395189 -0.00445963 
-0.000709025 0.0018567 0.000830227 -0.0757453 -0.00944882 -1.31592e-11 0.00152959 -0.0101808 0.000383638 
0.0157435 -0.00802436 0.00391226 0.00130663 -0.010973 -1.92684e-12 0.0115089 -0.000106616 0.000494323 
0.00244294 -0.0015674 -0.00044103 0.00257694 -0.000304498 9.75686e-05 0.00569924 -0.0137075 1.224e-07 
-0.000329434 0.000409363 -0.000249706 -0.0477192 -0.0426701 -0.0172677 0.00470661 -0.00155996 -9.82019e-05 
-7.93374e-05 -0.000315318 5.67826e-05 0.000915205 0.00080576 -0.000212252 -0.0132342 0.0104035 5.59101e-07 
-0.00275447 -0.00379207 0.000152209 -0.00721162 -0.0105299 0.000120277 0.00183884 -0.00637312 0.000665386 
3.50391e-05 0.00121674 3.11976e-05 -0.00159483 -0.00520508 2.94531e-05 -0.00700387 -0.00810163 -0.000376249 
0.000176133 0.000607824 -7.33661e-05 0.000112372 0.000353436 0.000139008 -6.44391e-05 -0.0101655 -0.000151808 
-0.011853 -0.00287797 0.00172126 0.00592836 -0.00219946 6.92042e-05 0.00537754 0.00353525 1.14157e-07 
0.00158707 0.00288134 0.000343006 -0.00302378 0.000542923 0.0059401 0.00498889 -0.000190172 -0.00496229 
0.0027005 -0.054428 -0.00609122 0.00380301 -0.0116416 -0.00369728 -0.00151647 -0.0114817 -0.00449464 
0.00702502 -0.039331 -0.0293118 0.0361335 0.148569 0.00768218 0.0137943 0.00169905 -0.0065562 
0.0491996 -0.00462141 0.00193137 -0.0966847 0.10957 -0.0402513 0.0132006 -0.00490849 -0.000132336 
0.0127374 -0.00470713 -0.00739487 -0.000984228 -0.0123512 -0.000107711 0.0171787 0.00127078 -1.50932e-05 
-0.00399877 -0.00220093 0.00192561 0.000314642 -0.00144651 0.000489624 0.00391995 -0.00325295 0.00189159 
0.0111659 -0.00570424 0.000157489 0.00030565 -0.00186334 7.53109e-06 0.00428846 -0.000937041 1.89018e-05 
0.00616449 0.000266027 -0.000126891 0.0114297 0.000322594 5.76022e-05 0.0101644 -0.00331176 1.74985e-05 
0.0101129 -0.00315879 5.82174e-06 0.00646547 -0.00424134 -2.35542e-05 0.00410114 -0.0148838 -3.98696e-05 
0.00677259 -0.00270008 2.79888e-05 0.0155225 -0.00680843 1.37297e-05 0.00401553 -0.00202623 -2.92204e-05 
-0.0356591 0.108823 0.0491421 0.00511515 -0.00291026 8.48703e-06 -0.000114115 -0.00313794 -0.00358209 
-0.0115609 0.00743123 0.0109996 0.000781532 -0.0107634 0.0114575 -0.0119409 0.0250683 -0.0151189 
0.0136035 0.0108147 3.32029e-08 -0.00544502 0.0443487 9.43782e-07 -6.82462e-05 -0.0363763 0.00727042 
0.0174168 -0.00957329 0.00605187 0.0485625 0.0323441 -0.011644 0.00970025 -0.00495448 -7.57097e-05 
0.0432014 0.0026594 -0.0267759 0.00584776 0.00582145 0.000401712 0.0228675 -0.0491893 -3.88845e-05 
-0.000483987 -0.0101477 -0.000220207 0.0252452 -0.0446131 9.57391e-05 0.0125812 0.0096642 5.59553e-05 
-0.0151079 -0.0257268 -2.85462e-12 0.0153062 -0.00280605 -0.000107541 0.0539716 0.0179661 -0.00429504 
-1.14605e-05 -0.0382209 -9.22877e-06 -0.000112015 -0.0310367 7.34882e-12 0.0408458 0.0332209 -5.81728e-05 
-0.0109389 0.0189167 0.000854715 0.0133478 -0.00352536 8.99376e-06 -0.0167446 -0.0325681 0.0161187 
0.000349556 -0.00655648 -3.45827e-05 -0.00697492 -0.00707809 -0.00027962 0.0218526 -0.019513 -4.34982e-05 
0.00211788 -0.0084679 -0.000635544 -0.0144628 -0.00481237 0.011297 -2.29953e-05 -0.000756505 0.0105722 
0.00251074 -0.00705552 -0.00151047 0.0015252 0.0173565 -0.0174003 0.000843202 -0.00240648 -0.00529463 
-0.00379779 -0.0092901 -0.0145502 0.000263337 -0.00206732 -0.00164835 -0.00657533 -0.00505184 -1.89338e-05 
3.79627e-05 -0.00772241 -0.00163912 0.00396558 -0.0233298 -0.0228225 0.0177459 -0.0120275 -0.00121187 
-6.66049e-05 -0.00947502 -0.000574771 -0.00241192 -0.00857976 3.03288e-05 0.00878999 -0.000132574 1.53029e-05 
-0.00352778 -0.00683869 0.00100638 -0.00557628 0.000545243 -9.36665e-07 -0.00336221 -0.0101149 9.58086e-05 
0.00640509 -0.00512053 -2.46499e-05 -0.0516087 0.0532162 1.54947e-11 0.000962893 -0.00634742 -2.73061e-06 
0.00204458 -0.0073632 -5.95126e-05 -0.00633834 -0.000389955 0.00022748 7.35338e-05 0.000783802 1.13574e-11 
0.0249418 0.0103347 -3.41882e-06 -0.00205798 -0.0108643 4.46044e-05 0.0350565 -0.02242 -7.87415e-13 
-0.000773 -0.00937671 -2.52458e-05 -0.000105029 -0.0085781 2.92617e-05 0.00462284 -0.00829357 -0.00105737 