# vtk DataFile Version 4.0
Generated by LIGGGHTS
ASCII
DATASET POLYDATA
POINTS 1030 float
0.00844804 0.00680527 0.0117372 0.00292458 0.00459217 0.0129546 0.0118531 0.00782611 0.0164756 
0.0131888 0.00166028 0.0122121 0.015665 0.00583687 0.0136895 0.0207738 0.00379249 0.0145444 
0.0175531 0.00339285 0.0158165 0.00795691 0.0119102 0.0113622 0.0090251 0.0153598 0.01222 
0.00219654 0.0162748 0.0123288 0.00783978 0.0101656 0.014365 0.0231063 0.0107814 0.0138676 
0.0143437 0.0134405 0.0162347 0.00709034 0.023174 0.0143891 0.00541081 0.0187752 0.0153403 
0.0036771 0.0194071 0.0163034 0.00914235 0.0231966 0.0165419 0.0148928 0.0230402 0.0146323 
0.022581 0.0227675 0.0154477 0.0176988 0.0244545 0.015897 0.0202312 0.0201952 0.0162639 
0.0104062 0.0268639 0.0122412 0.0113498 0.0306995 0.0136928 0.0108828 0.0296616 0.014312 
0.00414974 0.0333198 0.0163798 0.00660921 0.0280517 0.0163737 0.0214659 0.0290058 0.0113594 
0.0176603 0.0295638 0.0111977 0.0143331 0.0287116 0.0114335 0.0129352 0.0310327 0.0153629 
0.00673508 0.0392073 0.011342 0.00343213 0.0370204 0.0128535 0.00797306 0.0351687 0.0126127 
0.010649 0.0386145 0.0162502 0.0178733 0.0377034 0.01101 0.0201038 0.0414697 0.011721 
0.0225284 0.0343253 0.0121199 0.014766 0.0363065 0.0147923 0.0171168 0.0403865 0.0147641 
0.0180873 0.0415538 0.0162959 0.0065439 0.0476948 0.012328 0.00389644 0.0484977 0.0145778 
0.00856018 0.0467983 0.0146171 0.0160413 0.0442543 0.0118442 0.0139264 0.0431249 0.0132601 
0.0144577 0.0461063 0.0145614 0.0225443 0.0455754 0.0159724 0.00217018 0.0566907 0.0106194 
0.00418213 0.0535135 0.0115756 0.00845178 0.0534956 0.0118027 0.00522034 0.0568425 0.0141273 
0.0215164 0.0582485 0.0130781 0.0130256 0.0550133 0.0137465 0.0159258 0.0525458 0.0150042 
0.0200463 0.0578249 0.0160229 0.00470345 0.0590695 0.011791 0.0116891 0.0583731 0.0141647 
0.00924167 0.0646967 0.0159519 0.0217693 0.0636077 0.0117562 0.022676 0.0600376 0.0135896 
0.0125131 0.0622152 0.0146723 0.0196884 0.0597981 0.0154005 0.0140253 0.0609346 0.0163909 
0.00890187 0.0679317 0.0125227 0.00254164 0.0667222 0.0128438 0.00461083 0.0693915 0.0161478 
0.0076424 0.06812 0.0162948 0.0169642 0.0685253 0.0113603 0.015756 0.0706387 0.0135396 
0.0142326 0.0700007 0.0146149 0.0123205 0.0686813 0.0150062 0.0198245 0.0720953 0.0161562 
0.00959177 0.00278027 0.0166127 0.00740104 0.00746895 0.0192714 0.0113896 0.00435135 0.019226 
0.00284014 0.00317826 0.0216604 0.0057805 0.00250871 0.0209255 0.00545265 0.00517323 0.0192236 
0.000958321 0.00782428 0.0203551 0.0103529 0.00171083 0.020829 0.0103416 0.00830573 0.0226533 
0.0049854 0.00777072 0.0227453 0.00454008 0.00298892 0.0230942 0.000893102 0.00374762 0.0240055 
0.00693432 0.00361614 0.0239295 0.012931 0.00614459 0.0182637 0.018421 0.00652441 0.0178309 
0.0217211 0.00664946 0.0198296 0.0226981 0.00139128 0.0176168 0.0158177 0.000924417 0.0221275 
0.0160622 0.000833532 0.0175921 0.0210928 0.00166854 0.018815 0.018264 0.00760126 0.0211509 
0.0158421 0.00641332 0.0238646 0.0140214 0.00335173 0.0227372 0.0131958 0.00786407 0.0242793 
0.017356 0.00269448 0.0245616 0.0105309 0.0143151 0.0175163 0.00356636 0.00835703 0.018632 
0.00461686 0.0110043 0.016833 0.00931248 0.0111588 0.0176628 0.0086007 0.0131365 0.0208598 
0.00498962 0.0095882 0.0211214 0.00725911 0.015035 0.0187732 0.000822782 0.0140703 0.021336 
0.00976816 0.016173 0.0218478 0.00696012 0.0145292 0.0219276 0.00981468 0.0105857 0.023579 
0.00760783 0.0160429 0.0217335 0.00395151 0.0155215 0.0225889 0.00181495 0.0125426 0.0230938 
0.00794544 0.00913169 0.0234091 0.00462692 0.0143066 0.0201445 0.00586246 0.0147141 0.0240273 
0.0196274 0.0114859 0.0188193 0.0124485 0.0122058 0.0182482 0.018656 0.010653 0.020541 
0.0161745 0.0102621 0.021608 0.0157841 0.0100588 0.0193504 0.0189492 0.0134655 0.0210129 
0.0229934 0.0155347 0.0205798 0.021668 0.0125372 0.020457 0.0211906 0.0101701 0.0211425 
0.0147927 0.0164712 0.022017 0.0223866 0.00961205 0.023118 0.0173563 0.0141183 0.023223 
0.0148171 0.0130267 0.0226993 0.01834 0.0098387 0.0231961 0.0207829 0.00839388 0.0202304 
0.0214399 0.0143254 0.0235315 0.0189937 0.0122508 0.0248082 0.0151528 0.0151239 0.024912 
0.00308342 0.0221653 0.0166517 0.0115923 0.0171837 0.0178746 0.00181676 0.0198225 0.0190966 
0.00606243 0.0187949 0.0182584 0.00220238 0.0231027 0.0226947 0.00599076 0.0209071 0.0227707 
0.00959355 0.0215053 0.0218908 0.0028263 0.0173276 0.0192321 0.010403 0.0214753 0.0174402 
0.00128124 0.017966 0.0210279 0.00663197 0.0234065 0.0229649 0.011916 0.0246286 0.0216403 
0.00410589 0.0240813 0.0229184 0.00752008 0.0188469 0.0233522 0.00938785 0.0172223 0.024722 
0.0197663 0.0206212 0.0186441 0.0159083 0.0171547 0.0169446 0.0126691 0.0201063 0.0187925 
0.0215956 0.0170964 0.0203327 0.0161402 0.019438 0.0225496 0.0209217 0.0223702 0.0191827 
0.0151981 0.0201415 0.0185071 0.021642 0.0199239 0.0222623 0.0149728 0.0219241 0.0204626 
0.0144807 0.0242614 0.0212417 0.0181586 0.0227732 0.0213641 0.0160837 0.0220941 0.0240778 
0.0189615 0.0248699 0.0229337 0.0179774 0.0199983 0.0237157 0.023109 0.0192016 0.0243545 
0.0150063 0.0191401 0.024873 0.0092696 0.0316573 0.0169043 0.00226828 0.0322173 0.0171295 
0.000900116 0.0257758 0.018517 0.00382032 0.0253825 0.0176483 0.0115216 0.0284431 0.0215259 
0.0104009 0.0302344 0.0230014 0.00155635 0.0308982 0.0206247 0.00845921 0.025926 0.0216063 
0.0106702 0.0258412 0.022855 0.00504555 0.0265219 0.0216648 0.0118314 0.0318001 0.0236817 
0.00353128 0.0314091 0.0227065 0.00224671 0.0266051 0.0207457 0.0182523 0.031111 0.0177175 
0.0220955 0.0306459 0.0173202 0.0216686 0.0251729 0.0177962 0.0195711 0.0252057 0.020295 
0.0209992 0.0318478 0.0189609 0.0145974 0.0319076 0.0186645 0.0138308 0.0268224 0.0225728 
0.0205777 0.0274874 0.0194981 0.0164792 0.0307088 0.0207387 0.0146258 0.026391 0.0202609 
0.0152524 0.0296664 0.0191246 0.0221089 0.0255688 0.0227772 0.0218672 0.0303104 0.0227364 
0.0200167 0.0323572 0.0241101 0.0208604 0.0282342 0.0230709 0.0146416 0.0267849 0.0238874 
0.0110896 0.0389464 0.0191471 0.00990322 0.0357658 0.0192947 0.00596675 0.0351768 0.0197659 
0.00597108 0.0374407 0.0206412 0.0114875 0.0340509 0.0213837 0.00146146 0.0338178 0.0189034 
0.00500286 0.0346023 0.0230406 0.00829959 0.0416151 0.0208524 0.00218092 0.0359114 0.0212547 
0.00233895 0.0400337 0.0223589 0.0113549 0.0394318 0.0237222 0.00268124 0.041611 0.0241205 
0.00746616 0.0402476 0.0233203 0.00304999 0.0375777 0.0243246 0.00457761 0.0396693 0.0244109 
0.0107833 0.0333843 0.0247463 0.0125774 0.0408126 0.0171245 0.0206818 0.0376063 0.0171445 
0.0149588 0.0366776 0.0196327 0.0204292 0.0343598 0.0183743 0.0212804 0.0364281 0.019553 
0.0183459 0.0372004 0.0211833 0.0173664 0.0387622 0.022468 0.0227683 0.0335397 0.0203342 
0.0221813 0.0395673 0.021818 0.0226254 0.040902 0.0240891 0.0220701 0.0364185 0.0244493 
0.0083295 0.0429049 0.0188113 0.0033338 0.0474631 0.0216799 0.00624403 0.0481769 0.0209459 
0.00450533 0.0446364 0.0177971 0.00167466 0.0423104 0.0186611 0.0110322 0.0445341 0.0196711 
0.00437483 0.0491548 0.0200386 0.00581466 0.0423143 0.0227246 0.00206722 0.0490577 0.0238476 
0.0204667 0.04823 0.017144 0.017139 0.0449066 0.0197909 0.0175121 0.0469938 0.0206745 
0.0149978 0.0445915 0.0185426 0.0209881 0.0450385 0.0213835 0.0228257 0.0491904 0.0201776 
0.0169689 0.0496436 0.0205805 0.0151216 0.0474035 0.0192297 0.0196718 0.0430361 0.0238523 
0.0194526 0.0468103 0.0244277 0.0130939 0.0427248 0.0246529 0.00953544 0.0544076 0.0181382 
0.0119969 0.0568652 0.0197324 0.00482421 0.0515941 0.0210382 0.00679186 0.0557773 0.0199458 
0.00497728 0.0529841 0.0193272 0.00265563 0.0538131 0.0232552 0.00121332 0.0507394 0.0199847 
0.00821754 0.0506709 0.0195777 0.00126625 0.0556511 0.0203292 0.00946584 0.0563725 0.0191473 
0.00826804 0.0554779 0.0231407 0.00910289 0.0509306 0.0239932 0.0113834 0.0510835 0.0232946 
0.0224189 0.0560622 0.0180079 0.0180764 0.0564767 0.0181856 0.0205196 0.0542458 0.0207979 
0.0184619 0.0542899 0.0174098 0.0152161 0.0549241 0.0224047 0.0135239 0.0501626 0.021386 
0.0188001 0.0512368 0.0219522 0.0206441 0.0503171 0.0218821 0.0172939 0.0578024 0.0232701 
0.0161343 0.0518498 0.024535 0.0208095 0.0565929 0.0229991 0.0134154 0.0523313 0.0230154 
0.0143307 0.0502075 0.0247985 0.00628921 0.0655769 0.0183686 0.0066747 0.0626426 0.0182628 
0.00353967 0.0599039 0.0188105 0.00390816 0.0637994 0.0180081 0.00948119 0.0624471 0.0183074 
0.011525 0.066611 0.0205749 0.00241169 0.0662939 0.0194317 0.00311679 0.0608155 0.0226605 
0.0053958 0.0638384 0.0198005 0.00807882 0.0588117 0.0222627 0.0026187 0.063836 0.023451 
0.00627432 0.0641002 0.022391 0.00985386 0.0643729 0.0241584 0.00293186 0.0585379 0.0242109 
0.0143938 0.0645765 0.0173551 0.0207509 0.0657295 0.0187443 0.0179495 0.0657639 0.0183161 
0.0150993 0.0665221 0.0227933 0.014314 0.0583596 0.0185657 0.0166142 0.0612334 0.0188271 
0.0146122 0.0605922 0.0193477 0.0190953 0.0663814 0.0210435 0.0229294 0.0610516 0.0222418 
0.021731 0.0640249 0.0214967 0.0213426 0.0613291 0.0212799 0.0145467 0.0586437 0.0212366 
0.0127558 0.0628058 0.0222695 0.0217916 0.0595743 0.0234111 0.0166942 0.0632964 0.0236866 
0.0187844 0.0590125 0.0247198 0.00938029 0.0704313 0.0190298 0.00138504 0.0670921 0.0217713 
0.00414249 0.0712295 0.0198718 0.00213528 0.0711542 0.0224866 0.00442499 0.0675383 0.0187298 
0.00550481 0.0731226 0.0205831 0.00887881 0.067686 0.0230698 0.0114578 0.0709816 0.0230847 
0.00388967 0.0677358 0.0240044 0.00852214 0.0739399 0.024466 0.010695 0.0696891 0.0245915 
0.00393704 0.070558 0.024799 0.0154734 0.0675839 0.0170712 0.0159363 0.0714931 0.0198363 
0.022956 0.0682447 0.022276 0.0185693 0.0698803 0.018067 0.0217023 0.0707441 0.0203916 
0.0191468 0.0711234 0.020367 0.0206828 0.0724701 0.0214879 0.0130754 0.0710988 0.022126 
0.0173382 0.0732808 0.0232192 0.0181037 0.0695533 0.0233856 0.0126531 0.0667646 0.0236889 
0.0214682 0.0737604 0.0245208 0.00285892 0.00564683 0.0279842 0.00178166 0.00452815 0.0250009 
0.00233337 0.00271905 0.0255521 0.00663241 0.00785076 0.0292346 0.00254613 0.00239847 0.0278167 
[...]
POINT_DATA 1030
FIELD FieldData 7
id 1 1030 int
35 125 367 114 290 197 5 15 68 
83 235 232 414 98 355 394 110 91 
307 280 443 188 225 100 349 111 74 
58 22 34 3 196 106 450 7 55 
99 293 265 46 78 343 32 21 253 
139 189 109 128 163 279 88 121 94 
135 40 284 233 86 240 322 325 382 
171 224 136 51 69 260 148 358 314 
403 442 449 549 399 707 47 45 373 
65 304 512 271 332 412 509 568 572 
599 140 56 675 894 553 660 408 461 
510 654 305 336 781 827 281 582 635 
87 353 473 243 951 270 400 36 710 
340 753 754 475 816 824 846 177 569 
910 205 934 180 19 681 310 227 500 
4 583 740 429 790 794 802 406 638 
54 42 209 344 105 155 354 689 749 
761 456 828 112 190 884 84 380 436 
77 151 170 261 479 721 556 371 823 
254 93 629 103 991 285 301 422 370 
66 96 682 691 31 777 780 263 186 
739 940 176 283 226 626 350 701 20 
738 273 519 838 919 267 245 48 330 
766 276 338 296 698 127 95 181 899 
946 80 1022 407 494 533 24 684 63 
206 417 6 491 565 238 604 627 242 
57 795 594 702 328 228 493 389 559 
668 672 53 822 835 873 378 636 43 
244 487 560 564 679 706 430 841 848 
680 971 976 852 311 318 495 574 608 
661 694 579 17 490 508 79 387 401 
210 323 138 609 384 709 85 216 501 
269 820 82 915 375 352 683 287 586 
621 611 29 203 814 195 979 156 632 
462 335 571 525 757 184 457 839 64 
207 158 14 640 405 434 446 590 272 
704 719 162 404 857 933 936 980 423 
425 521 529 531 643 185 246 464 779 
792 10 118 911 59 606 840 208 41 
390 507 315 657 298 345 420 52 637 
164 187 73 992 1004 1014 379 397 448 
517 327 75 720 230 89 60 277 798 
179 366 566 603 392 663 674 743 37 
395 27 137 341 994 249 388 601 478 
711 723 853 900 447 945 372 319 468 
591 605 229 612 726 767 829 833 854 
859 876 633 129 1015 540 294 357 411 
518 102 201 44 92 204 199 771 214 
856 33 23 965 472 537 554 686 320 
104 634 324 690 901 11 1 268 211 
538 13 356 715 133 236 360 459 897 
805 952 1018 437 630 664 695 713 716 
737 339 241 141 451 885 381 914 927 
115 198 988 30 49 161 391 143 499 
544 580 615 645 255 150 160 958 234 
72 302 306 308 359 511 644 659 149 
561 122 778 807 212 943 861 347 969 
1007 386 418 252 588 595 613 38 717 
222 725 257 797 809 891 166 474 496 
427 514 142 584 602 71 773 784 872 
562 918 481 699 826 247 536 1010 266 
28 174 470 585 152 759 834 869 892 
97 662 930 251 39 218 363 424 292 
728 748 916 882 539 134 708 215 178 
642 874 153 541 67 903 904 312 954 
467 1001 482 505 282 607 617 620 692 
9 796 843 920 924 997 497 173 374 
192 485 610 26 727 763 670 722 974 
321 477 524 545 12 377 649 220 731 
62 782 61 862 557 256 928 219 1013 
764 237 278 221 146 653 101 113 787 
484 123 913 949 274 977 444 295 542 
213 669 733 818 837 575 929 169 957 
867 299 1003 671 2 548 107 573 676 
25 147 735 800 855 81 182 922 964 
154 624 1005 1016 175 342 398 438 458 
489 546 744 578 758 786 108 619 217 
880 432 950 956 200 250 116 145 528 
144 650 678 696 419 760 793 191 870 
193 955 993 346 361 421 124 783 132 
262 286 729 844 248 465 431 878 90 
887 973 291 480 616 647 409 830 845 
532 223 117 577 598 202 76 165 705 
810 868 126 476 364 326 963 995 998 
331 288 520 365 688 504 736 120 804 
812 752 907 921 527 239 172 1002 329 
651 667 677 685 813 819 881 896 289 
926 258 791 982 460 259 167 410 452 
547 317 426 618 658 746 765 440 70 
776 1023 275 303 313 119 396 168 157 
466 433 953 770 961 1012 334 231 183 
614 655 656 666 368 714 724 803 297 
703 463 972 622 453 300 1019 16 402 
439 393 8 687 745 416 775 18 836 
428 898 486 641 130 523 376 159 576 
131 50 769 788 847 883 917 1000 1017 
1020 1021 492 628 806 825 879 886 975 
526 552 631 768 864 999 535 742 774 
902 932 454 503 581 718 750 801 831 
875 970 435 755 756 762 789 925 938 
978 987 1024 348 502 515 534 596 648 
652 712 893 959 996 488 498 592 623 
665 732 842 905 906 939 983 984 455 
751 849 866 889 908 960 962 333 362 
369 469 530 673 734 947 309 316 516 
625 730 817 851 865 888 966 968 194 
513 772 808 931 944 986 1011 337 415 
555 558 700 871 981 989 1009 506 646 
815 821 832 850 912 937 471 543 570 
597 693 799 860 942 990 351 383 445 
483 522 563 587 741 877 923 935 941 
985 1008 264 567 589 600 639 858 948 
967 1006 441 550 551 697 747 811 863 
385 413 593 785 890 895 909 1025 1026 
1027 1028 1029 1030 
type 1 1030 int
1 1 1 1 1 1 1 1 1 
1 1 1 1 1 1 1 1 1 
1 1 1 1 1 1 1 1 1 
1 1 1 1 1 1 1 1 1 
1 1 1 1 1 1 1 1 1 
1 1 1 1 1 1 1 1 1 
1 1 1 1 1 1 1 1 1 
1 1 1 1 1 1 1 1 1 
1 1 1 1 1 1 1 1 1 
1 1 1 1 1 1 1 1 1 
1 1 1 1 1 1 1 1 1 
1 1 1 1 1 1 1 1 1 
1 1 1 1 1 1 1 1 1 
1 1 1 1 1 1 1 1 1 
1 1 1 1 1 1 1 1 1 
1 1 1 1 1 1 1 1 1 
1 1 1 1 1 1 1 1 1 
1 1 1 1 1 1 1 1 1 
1 1 1 1 1 1 1 1 1 
1 1 1 1 1 1 1 1 1 
1 1 1 1 1 1 1 1 1 
1 1 1 1 1 1 1 1 1 
1 1 1 1 1 1 1 1 1 
1 1 1 1 1 1 1 1 1 
1 1 1 1 1 1 1 1 1 
1 1 1 1 1 1 1 1 1 
1 1 1 1 1 1 1 1 1 
1 1 1 1 1 1 1 1 1 
1 1 1 1 1 1 1 1 1 
1 1 1 1 1 1 1 1 1 
1 1 1 1 1 1 1 1 1 
1 1 1 1 1 1 1 1 1 
1 1 1 1 1 1 1 1 1 
1 1 1 1 1 1 1 1 1 
1 1 1 1 1 1 1 1 1 
1 1 1 1 1 1 1 1 1 
1 1 1 1 1 1 1 1 1 
1 1 1 1 1 1 1 1 1 
1 1 1 1 1 1 1 1 1 
1 1 1 1 1 1 1 1 1 
1 1 1 1 1 1 1 1 1 
1 1 1 1 1 1 1 1 1 
1 1 1 1 1 1 1 1 1 
1 1 1 1 1 1 1 1 1 
1 1 1 1 1 1 1 1 1 
1 1 1 1 1 1 1 1 1 
1 1 1 1 1 1 1 1 1 
1 1 1 1 1 1 1 1 1 
1 1 1 1 1 1 1 1 1 
1 1 1 1 1 1 1 1 1 
1 1 1 1 1 1 1 1 1 
1 1 1 1 1 1 1 1 1 
1 1 1 1 1 1 1 1 1 
1 1 1 1 1 1 1 1 1 
1 1 1 1 1 1 1 1 1 
1 1 1 1 1 1 1 1 1 
1 1 1 1 1 1 1 1 1 
1 1 1 1 1 1 1 1 1 
1 1 1 1 1 1 1 1 1 
1 1 1 1 1 1 1 1 1 
1 1 1 1 1 1 1 1 1 
1 1 1 1 1 1 1 1 1 
1 1 1 1 1 1 1 1 1 
1 1 1 1 1 1 1 1 1 
1 1 1 1 1 1 1 1 1 
1 1 1 1 1 1 1 1 1 
1 1 1 1 1 1 1 1 1 
1 1 1 1 1 1 1 1 1 
1 1 1 1 1 1 1 1 1 
1 1 1 1 1 1 1 1 1 
1 1 1 1 1 1 1 1 1 
1 1 1 1 1 1 1 1 1 
1 1 1 1 1 1 1 1 1 
1 1 1 1 1 1 1 1 1 
1 1 1 1 1 1 1 1 1 
1 1 1 1 1 1 1 1 1 
1 1 1 1 1 1 1 1 1 
1 1 1 1 1 1 1 1 1 
1 1 1 1 1 1 1 1 1 
1 1 1 1 1 1 1 1 1 
1 1 1 1 1 1 1 1 1 
1 1 1 1 1 1 1 1 1 
1 1 1 1 1 1 1 1 1 
1 1 1 1 1 1 1 1 1 
1 1 1 1 1 1 1 1 1 
1 1 1 1 1 1 1 1 1 
1 1 1 1 1 1 1 1 1 
1 1 1 1 1 1 1 1 1 
1 1 1 1 1 1 1 1 1 
1 1 1 1 1 1 1 1 1 
1 1 1 1 1 1 1 1 1 
1 1 1 1 1 1 1 1 1 
1 1 1 1 1 1 1 1 1 
1 1 1 1 1 1 1 1 1 
1 1 1 1 1 1 1 1 1 
1 1 1 1 1 1 1 1 1 
1 1 1 1 1 1 1 1 1 
1 1 1 1 1 1 1 1 1 
1 1 1 1 1 1 1 1 1 
1 1 1 1 1 1 1 1 1 
1 1 1 1 1 1 1 1 1 
1 1 1 1 1 1 1 1 1 
1 1 1 1 1 1 1 1 1 
1 1 1 1 1 1 1 1 1 
1 1 1 1 1 1 1 1 1 
1 1 1 1 1 1 1 1 1 
1 1 1 1 1 1 1 1 1 
1 1 1 1 1 1 1 1 1 
1 1 1 1 1 1 1 1 1 
1 1 1 1 1 1 1 1 1 
1 1 1 1 1 1 1 1 1 
1 1 1 1 1 1 1 1 1 
1 1 1 1 1 1 1 1 1 
1 1 1 1 1 1 1 1 1 
1 1 1 1 
i 3 1030 int
0 0 0 0 0 0 0 0 0 
0 0 0 0 0 0 0 0 0 
0 0 0 0 0 0 0 0 0 
0 0 0 0 0 0 0 0 0 
0 0 0 0 0 0 0 0 0 
0 0 0 0 0 0 0 0 0 
0 0 0 0 0 0 0 0 0 
0 0 0 0 0 0 0 0 0 
0 0 0 0 0 0 0 0 0 
0 0 0 0 0 0 0 0 0 
0 0 0 0 0 0 0 0 0 
0 0 0 0 0 0 0 0 0 
0 0 0 0 0 0 0 0 0 
0 0 0 0 0 0 0 0 0 
0 0 0 0 0 0 0 0 0 
0 0 0 0 0 0 0 0 0 
0 0 0 0 0 0 0 0 0 
0 0 0 0 0 0 0 0 0 
0 0 0 0 0 0 0 0 0 
0 0 0 0 0 0 0 0 0 
0 0 0 0 0 0 0 0 0 
0 0 0 0 0 0 0 0 0 
0 0 0 0 0 0 0 0 0 
0 0 0 0 0 0 0 0 0 
0 0 0 0 0 0 0 0 0 
0 0 0 0 0 0 0 0 0 
0 0 0 0 0 0 0 0 0 
0 0 0 0 0 0 0 0 0 
0 0 0 0 0 0 0 0 0 
0 0 0 0 0 0 0 0 0 
0 0 0 0 0 0 0 0 0 
0 0 0 0 0 0 0 0 0 
0 0 0 0 0 0 0 0 0 
0 0 0 0 0 0 0 0 0 
0 0 0 0 0 0 0 0 0 
0 0 0 0 0 0 0 0 0 
0 0 0 0 0 0 0 0 0 
0 0 0 0 0 0 0 0 0 
0 0 0 0 0 0 0 0 0 
0 0 0 0 0 0 0 0 0 
0 0 0 0 0 0 0 0 0 
0 0 0 0 0 0 0 0 0 
0 0 0 0 0 0 0 0 0 
0 0 0 0 0 0 0 0 0 
0 0 0 0 0 0 0 0 0 
0 0 0 0 0 0 0 0 0 
0 0 0 0 0 0 0 0 0 
0 0 0 0 0 0 0 0 0 
0 0 0 0 0 0 0 0 0 
0 0 0 0 0 0 0 0 0 
0 0 0 0 0 0 0 0 0 
0 0 0 0 0 0 0 0 0 
0 0 0 0 0 0 0 0 0 
0 0 0 0 0 0 0 0 0 
0 0 0 0 0 0 0 0 0 
0 0 0 0 0 0 0 0 0 
0 0 0 0 0 0 0 0 0 
0 0 0 0 0 0 0 0 0 
0 0 0 0 0 0 0 0 0 
0 0 0 0 0 0 0 0 0 
0 0 0 0 0 0 0 0 0 
0 0 0 0 0 0 0 0 0 
0 0 0 0 0 0 0 0 0 
0 0 0 0 0 0 0 0 0 
0 0 0 0 0 0 0 0 0 
0 0 0 0 0 0 0 0 0 
0 0 0 0 0 0 0 0 0 
0 0 0 0 0 0 0 0 0 
0 0 0 0 0 0 0 0 0 
0 0 0 0 0 0 0 0 0 
0 0 0 0 0 0 0 0 0 
0 0 0 0 0 0 0 0 0 
0 0 0 0 0 0 0 0 0 
0 0 0 0 0 0 0 0 0 
0 0 0 0 0 0 0 0 0 
0 0 0 0 0 0 0 0 0 
0 0 0 0 0 0 0 0 0 
0 0 0 0 0 0 0 0 0 
0 0 0 0 0 0 0 0 0 
0 0 0 0 0 0 0 0 0 
0 0 0 0 0 0 0 0 0 
0 0 0 0 0 0 0 0 0 
0 0 0 0 0 0 0 0 0 
0 0 0 0 0 0 0 0 0 
0 0 0 0 0 0 0 0 0 
0 0 0 0 0 0 0 0 0 
0 0 0 0 0 0 0 0 0 
0 0 0 0 0 0 0 0 0 
0 0 0 0 0 0 0 0 0 
0 0 0 0 0 0 0 0 0 
0 0 0 0 0 0 0 0 0 
0 0 0 0 0 0 0 0 0 
0 0 0 0 0 0 0 0 0 
0 0 0 0 0 0 0 0 0 
0 0 0 0 0 0 0 0 0 
0 0 0 0 0 0 0 0 0 
0 0 0 0 0 0 0 0 0 
0 0 0 0 0 0 0 0 0 
0 0 0 0 0 0 0 0 0 
0 0 0 0 0 0 0 0 0 
0 0 0 0 0 0 0 0 0 
0 0 0 0 0 0 0 0 0 
0 0 0 0 0 0 0 0 0 
0 0 0 0 0 0 0 0 0 
0 0 0 0 0 0 0 0 0 
0 0 0 0 0 0 0 0 0 
0 0 0 0 0 0 0 0 0 
0 0 0 0 0 0 0 0 0 
0 0 0 0 0 0 0 0 0 
0 0 0 0 0 0 0 0 0 
0 0 0 0 0 0 0 0 0 
0 0 0 0 0 0 0 0 0 
0 0 0 0 0 0 0 0 0 
0 0 0 0 0 0 0 0 0 
0 0 0 0 0 0 0 0 0 
0 0 0 0 0 0 0 0 0 
0 0 0 0 0 0 0 0 0 
0 0 0 0 0 0 0 0 0 
0 0 0 0 0 0 0 0 0 
0 0 0 0 0 0 0 0 0 
0 0 0 0 0 0 0 0 0 
0 0 0 0 0 0 0 0 0 
0 0 0 0 0 0 0 0 0 
0 0 0 0 0 0 0 0 0 
0 0 0 0 0 0 0 0 0 
0 0 0 0 0 0 0 0 0 
0 0 0 0 0 0 0 0 0 
0 0 0 0 0 0 0 0 0 
0 0 0 0 0 0 0 0 0 
0 0 0 0 0 0 0 0 0 
0 0 0 0 0 0 0 0 0 
0 0 0 0 0 0 0 0 0 
0 0 0 0 0 0 0 0 0 
0 0 0 0 0 0 0 0 0 
0 0 0 0 0 0 0 0 0 
0 0 0 0 0 0 0 0 0 
0 0 0 0 0 0 0 0 0 
0 0 0 0 0 0 0 0 0 
0 0 0 0 0 0 0 0 0 
0 0 0 0 0 0 0 0 0 
0 0 0 0 0 0 0 0 0 
0 0 0 0 0 0 0 0 0 
0 0 0 0 0 0 0 0 0 
0 0 0 0 0 0 0 0 0 
0 0 0 0 0 0 0 0 0 
0 0 0 0 0 0 0 0 0 
0 0 0 0 0 0 0 0 0 
0 0 0 0 0 0 0 0 0 
0 0 0 0 0 0 0 0 0 
0 0 0 0 0 0 0 0 0 
0 0 0 0 0 0 0 0 0 
0 0 0 0 0 0 0 0 0 
0 0 0 0 0 0 0 0 0 
0 0 0 0 0 0 0 0 0 
0 0 0 0 0 0 0 0 0 
0 0 0 0 0 0 0 0 0 
0 0 0 0 0 0 0 0 0 
0 0 0 0 0 0 0 0 0 
0 0 0 0 0 0 0 0 0 
0 0 0 0 0 0 0 0 0 
0 0 0 0 0 0 0 0 0 
0 0 0 0 0 0 0 0 0 
0 0 0 0 0 0 0 0 0 
0 0 0 0 0 0 0 0 0 
0 0 0 0 0 0 0 0 0 
0 0 0 0 0 0 0 0 0 
0 0 0 0 0 0 0 0 0 
0 0 0 0 0 0 0 0 0 
0 0 0 0 0 0 0 0 0 
0 0 0 0 0 0 0 0 0 
0 0 0 0 0 0 0 0 0 
0 0 0 0 0 0 0 0 0 
0 0 0 0 0 0 0 0 0 
0 0 0 0 0 0 0 0 0 
0 0 0 0 0 0 0 0 0 
0 0 0 0 0 0 0 0 0 
0 0 0 0 0 0 0 0 0 
0 0 0 0 0 0 0 0 0 
0 0 0 0 0 0 0 0 0 
0 0 0 0 0 0 0 0 0 
0 0 0 0 0 0 0 0 0 
0 0 0 0 0 0 0 0 0 
0 0 0 0 0 0 0 0 0 
0 0 0 0 0 0 0 0 0 
0 0 0 0 0 0 0 0 0 
0 0 0 0 0 0 0 0 0 
0 0 0 0 0 0 0 0 0 
0 0 0 0 0 0 0 0 0 
0 0 0 0 0 0 0 0 0 
0 0 0 0 0 0 0 0 0 
0 0 0 0 0 0 0 0 0 
0 0 0 0 0 0 0 0 0 
0 0 0 0 0 0 0 0 0 
0 0 0 0 0 0 0 0 0 
0 0 0 0 0 0 0 0 0 
0 0 0 0 0 0 0 0 0 
0 0 0 0 0 0 0 0 0 
0 0 0 0 0 0 0 0 0 
0 0 0 0 0 0 0 0 0 
0 0 0 0 0 0 0 0 0 
0 0 0 0 0 0 0 0 0 
0 0 0 0 0 0 0 0 0 
0 0 0 0 0 0 0 0 0 
0 0 0 0 0 0 0 0 0 
0 0 0 0 0 0 0 0 0 
0 0 0 0 0 0 0 0 0 
0 0 0 0 0 0 0 0 0 
0 0 0 0 0 0 0 0 0 
0 0 0 0 0 0 0 0 0 
0 0 0 0 0 0 0 0 0 
0 0 0 0 0 0 0 0 0 
0 0 0 0 0 0 0 0 0 
0 0 0 0 0 0 0 0 0 
0 0 0 0 0 0 0 0 0 
0 0 0 0 0 0 0 0 0 
0 0 0 0 0 0 0 0 0 
0 0 0 0 0 0 0 0 0 
0 0 0 0 0 0 0 0 0 
0 0 0 0 0 0 0 0 0 
0 0 0 0 0 0 0 0 0 
0 0 0 0 0 0 0 0 0 
0 0 0 0 0 0 0 0 0 
0 0 0 0 0 0 0 0 0 
0 0 0 0 0 0 0 0 0 
0 0 0 0 0 0 0 0 0 
0 0 0 0 0 0 0 0 0 
0 0 0 0 0 0 0 0 0 
0 0 0 0 0 0 0 0 0 
0 0 0 0 0 0 0 0 0 
0 0 0 0 0 0 0 0 0 
0 0 0 0 0 0 0 0 0 
0 0 0 0 0 0 0 0 0 
0 0 0 0 0 0 0 0 0 
0 0 0 0 0 0 0 0 0 
0 0 0 0 0 0 0 0 0 
0 0 0 0 0 0 0 0 0 
0 0 0 0 0 0 0 0 0 
0 0 0 0 0 0 0 0 0 
0 0 0 0 0 0 0 0 0 
0 0 0 0 0 0 0 0 0 
0 0 0 0 0 0 0 0 0 
0 0 0 0 0 0 0 0 0 
0 0 0 0 0 0 0 0 0 
0 0 0 0 0 0 0 0 0 
0 0 0 0 0 0 0 0 0 
0 0 0 0 0 0 0 0 0 
0 0 0 0 0 0 0 0 0 
0 0 0 0 0 0 0 0 0 
0 0 0 0 0 0 0 0 0 
0 0 0 0 0 0 0 0 0 
0 0 0 0 0 0 0 0 0 
0 0 0 0 0 0 0 0 0 
0 0 0 0 0 0 0 0 0 
0 0 0 0 0 0 0 0 0 
0 0 0 0 0 0 0 0 0 
0 0 0 0 0 0 0 0 0 
0 0 0 0 0 0 0 0 0 
0 0 0 0 0 0 0 0 0 
0 0 0 0 0 0 0 0 0 
0 0 0 0 0 0 0 0 0 
0 0 0 0 0 0 0 0 0 
0 0 0 0 0 0 0 0 0 
0 0 0 0 0 0 0 0 0 
0 0 0 0 0 0 0 0 0 
0 0 0 0 0 0 0 0 0 
0 0 0 0 0 0 0 0 0 
0 0 0 0 0 0 0 0 0 
0 0 0 0 0 0 0 0 0 
0 0 0 0 0 0 0 0 0 
0 0 0 0 0 0 0 0 0 
0 0 0 0 0 0 0 0 0 
0 0 0 0 0 0 0 0 0 
0 0 0 0 0 0 0 0 0 
0 0 0 0 0 0 0 0 0 
0 0 0 0 0 0 0 0 0 
0 0 0 0 0 0 0 0 0 
0 0 0 0 0 0 0 0 0 
0 0 0 0 0 0 0 0 0 
0 0 0 0 0 0 0 0 0 
0 0 0 0 0 0 0 0 0 
0 0 0 0 0 0 0 0 0 
0 0 0 0 0 0 0 0 0 
0 0 0 0 0 0 0 0 0 
0 0 0 0 0 0 0 0 0 
0 0 0 0 0 0 0 0 0 
0 0 0 0 0 0 0 0 0 
0 0 0 0 0 0 0 0 0 
0 0 0 0 0 0 0 0 0 
0 0 0 0 0 0 0 0 0 
0 0 0 0 0 0 0 0 0 
0 0 0 0 0 0 0 0 0 
0 0 0 0 0 0 0 0 0 
0 0 0 0 0 0 0 0 0 
0 0 0 0 0 0 0 0 0 
0 0 0 0 0 0 0 0 0 
0 0 0 0 0 0 0 0 0 
0 0 0 0 0 0 0 0 0 
0 0 0 0 0 0 0 0 0 
0 0 0 0 0 0 0 0 0 
0 0 0 0 0 0 0 0 0 
0 0 0 0 0 0 0 0 0 
0 0 0 0 0 0 0 0 0 
0 0 0 0 0 0 0 0 0 
0 0 0 0 0 0 0 0 0 
0 0 0 0 0 0 0 0 0 
0 0 0 0 0 0 0 0 0 
0 0 0 0 0 0 0 0 0 
0 0 0 0 0 0 0 0 0 
0 0 0 0 0 0 0 0 0 
0 0 0 0 0 0 0 0 0 
0 0 0 0 0 0 0 0 0 
0 0 0 0 0 0 0 0 0 
0 0 0 0 0 0 0 0 0 
0 0 0 0 0 0 0 0 0 
0 0 0 0 0 0 0 0 0 
0 0 0 0 0 0 0 0 0 
0 0 0 0 0 0 0 0 0 
0 0 0 0 0 0 0 0 0 
0 0 0 0 0 0 0 0 0 
0 0 0 0 0 0 0 0 0 
0 0 0 0 0 0 0 0 0 
0 0 0 0 0 0 0 0 0 
0 0 0 0 0 0 0 0 0 
0 0 0 0 0 0 0 0 0 
0 0 0 0 0 0 0 0 0 
0 0 0 0 0 0 0 0 0 
0 0 0 0 0 0 0 0 0 
0 0 0 0 0 0 0 0 0 
0 0 0 0 0 0 0 0 0 
0 0 0 0 0 0 0 0 0 
0 0 0 0 0 0 0 0 0 
0 0 0 0 0 0 0 0 0 
0 0 0 0 0 0 0 0 0 
0 0 0 0 0 0 0 0 0 
0 0 0 0 0 0 0 0 0 
0 0 0 0 0 0 0 0 0 
0 0 0 0 0 0 0 0 0 
0 0 0 0 0 0 0 0 0 
0 0 0 0 0 0 0 0 0 
0 0 0 0 0 0 0 0 0 
0 0 0 0 0 0 0 0 0 
0 0 0 0 0 0 0 0 0 
0 0 0 0 0 0 0 0 0 
0 0 0 
v 3 1030 double
0 0 -0.0815374 0 0 -4.27493 -0.00273215 0.00426215 -3.19537 
0 0 -4.32275 0 0 -3.54089 0.190212 0.0344681 -4.19562 
-0.122629 0.0866975 -4.38088 0 0 -0.104973 0 0 0.0195956 
0 0 -4.44341 0 0 -3.76652 0 0 -3.77364 
0.423824 0.243313 -3.69636 0 0 -4.38382 0.111611 -0.0279499 -3.43535 
-0.466317 0.257706 -3.90369 0 0 -4.35218 0 0 -4.40025 
0 0 -3.46119 0 0 -3.57842 0.0257186 -0.0235697 -3.02621 
0 0 -3.98136 0.0761403 0.16925 -3.94216 -0.0240865 -0.0535413 -4.33156 
0.186311 0.109167 -3.42302 0 0 -4.35096 0 0 0.135764 
0 0 -4.55329 0 0 -4.68474 0 0 -4.65433 
0 0 -4.75954 0 0 -3.93697 0 0 -4.36346 
-0.0114826 -0.0125648 -2.81748 0 0 0.421563 0 0 -4.56163 
0 0 -4.3772 0 0 -3.52839 -0.163524 -0.196686 -4.04141 
0.111441 0.134041 -4.30885 0 0 -4.45543 0 0 -3.30202 
0 0 -4.65776 0 0 -4.68548 0 0 -3.71355 
0 0 -4.21239 0 0 -3.98112 0 0 -4.35611 
0 0 -4.26389 0 0 -4.09884 0 0 -3.57866 
0 0 -4.41619 0 0 -4.30804 0 0 -4.38554 
0.0273997 -0.151065 -3.99511 0 0 -4.60847 0 0 -3.5637 
0 0 -3.77094 0 0 -4.42674 0 0 -3.75328 
0 0 -3.40969 -0.0401972 0.221623 -3.74245 0 0 -3.11563 
0 0 -4.07186 0 0 -3.80405 0 0 -4.22588 
0 0 -4.5837 0 0 -4.50227 0.0275054 0.011519 -3.69492 
-0.18682 -0.0782382 -3.97002 0 0 -3.23409 0 0 -3.42563 
0 0 -2.99104 0.063652 -0.0356487 -2.89145 0 0 -2.80122 
-0.0678135 0.00755289 -2.44783 0 0 -3.01312 -0.247426 -0.309737 -1.86203 
0 0 -4.58664 0 0 -4.58885 0 0 -3.16346 
-0.0409797 -0.302151 -3.51416 0.460289 -0.0512657 -2.95578 -0.0689056 -0.0605287 -2.59242 
0 0 -3.60687 0.039888 -0.0622251 -3.25597 0 0 -2.96701 
0 0 -2.50054 0.294095 -0.0507933 -2.57928 0 0 -2.23347 
-0.426167 0.0812885 -2.65433 -0.632513 0.109242 -3.5001 0 0 -4.55844 
0 0 -1.7827 0 0 -0.736461 0.0502472 0.0347416 -2.86822 
-0.0347383 -0.0114695 -2.79662 -0.336403 0.383703 -3.41076 -0.0777136 -0.0485272 -2.89022 
0 0 -2.49539 -1.0649 -0.398517 -3.25111 0.35418 -0.520753 -2.70303 
-0.0559244 0.259228 -2.99903 -0.0862909 -0.0674552 -2.24713 0 0 -1.14554 
0.121254 0.0161244 -3.68068 0.0987647 -0.251333 -3.62044 0 0 -1.98233 
-0.113143 0.133535 -4.12064 0 0 -3.25861 -0.148731 -0.131375 -3.23307 
0 0 -3.73881 0 0 -0.432351 0.0387416 -0.018308 -3.58085 
0.125559 0.144424 -3.27046 0.0325719 -0.13726 -4.0154 -0.0410424 0.00821622 -3.35757 
0.067071 0.0349264 -2.50439 -0.0984172 -0.0512496 -2.66303 -0.799317 -0.188055 -3.5057 
-0.0399791 0.30846 -3.68783 0.130644 -0.431196 -2.99552 -0.41708 0.194615 -3.15859 
0 0 -1.04768 0.193926 -0.0904886 -3.09469 -0.739863 0.0271059 -2.92397 
-0.321438 0.52275 -2.29553 -0.135486 -0.333994 -3.47892 0 0 -0.541487 
0.150599 0.301857 -3.07095 -0.227448 -0.0201109 -3.74613 -0.00638269 0.0379692 -1.9613 
0 0 -3.4401 -0.012008 -0.0419599 -3.81573 0 0 -2.53365 
-0.152559 0.798005 -3.50212 0 0 -2.17289 0 0 -1.51243 
0 0 -2.87921 0 0 -1.32138 -0.776062 0.503595 -3.20443 
0 0 -1.2635 0 0 -2.98467 -0.108428 -0.142562 -2.73847 
0 0 -4.57462 0 0 -4.59498 0 0 -3.87027 
-0.0377217 0.0345699 -2.9984 0.121526 -0.511079 -3.93715 0.18535 -0.0473065 -3.68252 
0 0 -3.24733 0.108811 0.0264018 -2.44748 0 0 -1.49183 
-0.178288 0.749788 -2.05568 -0.0247212 0.00454176 -2.90955 0 0 -1.1421 
0.416308 -0.0772258 -4.00535 0 0 -3.96542 0 0 -0.800962 
-0.201277 -0.0446964 -4.29912 0.382847 0.116016 -2.77276 -0.0568566 -0.299696 -3.04672 
-0.521515 -0.137293 -2.38417 0 0 -4.15328 -0.086568 -0.0507235 -4.00975 
0 0 -3.66426 0 0 -2.62783 0.0230887 -0.0369038 -1.66053 
-0.156672 0.250417 -1.97646 -0.339372 -0.0877807 -4.04959 -0.359903 0.0361096 -1.75082 
0.272135 0.178165 -2.17609 0 0 -4.3902 0 0 -1.99925 
0.0733044 0.0189606 -4.1777 0 0 -0.21555 -0.0101659 -0.1634 -3.73367 
0.0453228 -0.0283241 -3.57194 0 0 -2.91134 -0.152395 -0.345456 -2.93652 
0.108364 0.228124 -3.58634 0 0 -4.38431 -0.387571 0.0178955 -3.07822 
0.0708419 0.160587 -1.83995 -0.240434 -0.0803965 -3.58228 0 0 -1.37092 
-1.11472 -0.788646 -2.90491 0.0935682 0.0207782 -3.71299 0 0 -3.9848 
-0.398937 -0.0163093 -2.09983 0 0 -0.506171 0.264072 -0.0121931 -3.13176 
0.0612203 0.0454207 -2.73835 -0.0545931 0.0590972 -3.78248 -0.00073743 -0.385686 -2.21546 
7.40761e-05 0.0387428 -3.25556 0.0801077 -0.0867168 -1.71502 0 0 -4.68621 
0 0 -1.51439 0.0512442 -0.00965899 -3.5411 -0.0938357 -0.179619 -3.33904 
-0.0432952 -0.199506 -1.64767 0.206104 -0.225508 -2.14967 0.136573 0.629337 -1.8509 
0.00131293 -0.101903 -3.57939 0.0790594 0.177536 -3.27625 0.125986 0.184794 -3.38627 
0 0 -1.41016 0.217437 0.247939 -3.32045 0.0272146 0.156887 -3.32304 
0 0 -3.52422 0.306706 0.20531 -2.24903 0 0 -4.26463 
0 0 -4.38505 0 0 -4.01374 0 0 -0.7009 
-0.0922672 -0.603224 -2.2713 0.478182 0.338175 -2.51554 0 0 -0.0411775 
0.016694 0.216264 -3.43468 0 0 -2.55548 0 0 -2.42329 
0.499294 0.384213 -4.29173 0.0338803 -0.251478 -1.96467 -0.257967 -0.00740146 -4.08768 
0 0 -3.88277 -0.140862 0.175224 -3.08407 0 0 -4.75218 
0 0 -2.56652 0.484851 -0.0963928 -2.72712 0.149843 0.328059 -3.03294 
0.541028 -0.0358604 -3.46894 0.0926181 0.0980514 -2.22174 0 0 -3.74715 
0.203123 0.246317 -3.91335 -0.641175 -0.777521 -3.32562 -0.041513 0.0130125 -2.3794 
-0.00969124 -0.0647105 -2.25887 0 0 -3.38859 -0.246035 -0.259592 -3.59922 
0.231837 0.0753372 -2.48861 -0.0487394 -0.442601 -2.07465 -0.15236 -0.0829487 -2.29319 
0.00489257 0.0444293 -1.89166 0 0 -1.78466 0 0 -4.57659 
0 0 -1.17472 0 0 -1.10017 -0.00033587 0.0219317 -2.16333 
0.00912896 -0.156072 -3.06896 0 0 -1.9735 0 0 -4.5913 
0 0 -3.72459 0 0 -2.5827 0 0 -2.28742 
0 0 -2.26707 0 0 -1.76994 0 0 -1.66056 
-0.15373 0.0766713 -2.83064 0.0332186 -0.0165674 -1.08958 0 0 -1.02561 
0 0 -1.76847 0 0 -0.318065 0 0 -0.300652 
0 0 -1.00305 0.04279 0.108891 -3.55702 -0.0796145 -0.117422 -3.75478 
0 0 -2.55327 0 0 -2.21654 0.686954 -0.104307 -2.88355 
0 0 -1.8266 0 0 -1.72237 0.0184398 0.227108 -2.427 
-0.302554 0.00620889 -3.80761 0.0110054 0.0715532 -2.54663 0 0 -2.50079 
0 0 -4.45519 0.169544 -0.574282 -2.49074 -0.0125724 -0.154845 -2.84507 
0 0 -3.86978 0.00615759 0.014853 -3.49724 0 0 -4.21754 
0 0 -2.08607 -0.039724 -0.0484978 -4.30977 0 0 -1.65296 
0 0 -4.43091 -0.132199 0.0543887 -3.55896 0.50182 0.150775 -2.56188 
0.0286358 -0.0491778 -3.49266 -0.415359 0.153975 -2.01482 0.00858598 0.0104823 -4.182 
0.113292 0.00943353 -1.11771 0.0282287 -0.237856 -3.19237 0 0 -3.26082 
0.119543 0.133634 -1.97374 0 0 -3.55586 -0.189328 -0.0277932 -2.22089 
0 0 -2.02476 -0.0951884 0.0250945 -2.33876 0.27769 0.0407646 -4.57059 
0 0 -3.89921 0.0102071 0.0306834 -1.77292 -0.794613 -0.081874 -3.52167 
0 0 -0.293785 0 0 -4.12582 0.494056 -0.0264851 -2.43388 
0.402568 -0.205848 -2.63592 0 0 -3.33488 -0.0438626 -0.0765574 -2.84802 
0 0 -2.44487 0.544456 -0.386311 -2.37425 0 0 -4.00417 
0.168706 0.253945 -4.00904 0 0 -1.08668 -0.527059 -0.111692 -3.25489 
0.19598 -0.0340436 -2.81857 -0.0169437 -0.0255045 -3.98909 0 0 -4.70313 
0 0 -1.948 0 0 -2.98712 0.0689056 0.0605287 -2.76061 
0 0 -2.81692 -0.111151 -0.0725713 -2.22317 0 0 -3.60662 
0 0 -1.66154 0.428519 0.118181 -2.1827 -0.268847 -0.296442 -3.71953 
-0.199245 -0.0549496 -2.72444 0 0 -0.97558 0 0 -0.542714 