# vtk DataFile Version 4.0
Generated by LIGGGHTS
ASCII
DATASET POLYDATA
POINTS 172 float
0.00844804 0.00680527 0.0202547 0.00292458 0.00459217 0.0222425 0.0131888 0.00166028 0.0216972 
0.00795691 0.0119102 0.0199357 0.0090251 0.0153598 0.0206146 0.00219654 0.0162748 0.0223117 
0.00709034 0.023174 0.0241262 0.0148928 0.0230402 0.0244372 0.0108832 0.0296624 0.0240141 
0.0143331 0.0287116 0.0224119 0.0176603 0.0295638 0.0216339 0.0214659 0.0290058 0.0201229 
0.00673508 0.0392073 0.022629 0.00797306 0.0351687 0.0222658 0.0178733 0.0377034 0.0219928 
0.0201038 0.0414697 0.0221916 0.0225284 0.0343253 0.0218297 0.0065439 0.0476948 0.0223605 
0.0160413 0.0442543 0.0228256 0.0144577 0.0461063 0.0235913 0.00217018 0.0566907 0.0202422 
0.00418213 0.0535135 0.020818 0.00845178 0.0534956 0.0203642 0.0215164 0.0582485 0.0229487 
0.0159258 0.0525458 0.0247484 0.0130256 0.0550133 0.023171 0.0199799 0.0581907 0.0245572 
0.00470345 0.0590695 0.0224548 0.0217693 0.0636077 0.0216703 0.0169642 0.0685253 0.021586 
0.0142797 0.0700204 0.0233938 0.0103529 0.00171083 0.0314118 0.000958321 0.00782428 0.0309289 
0.0181225 0.00331204 0.0259249 0.018264 0.00760126 0.0316083 0.0211612 0.00165672 0.0277651 
0.00507376 0.00842223 0.0308664 0.00802696 0.0159414 0.031064 0.00297045 0.0135633 0.0332414 
0.0123137 0.0122819 0.0285639 0.00592645 0.0180606 0.0272728 0.00914235 0.0231966 0.0261485 
0.0193281 0.0249513 0.0326262 0.0157523 0.0178105 0.0260522 0.0140346 0.0243441 0.0304461 
0.0124281 0.0201043 0.0268996 0.00504555 0.0265219 0.0314282 0.00340775 0.0313771 0.0320538 
0.00660921 0.0280517 0.0259753 0.0092696 0.0316573 0.0256905 0.0169621 0.0309306 0.0301985 
0.0129352 0.0310327 0.0262158 0.0204392 0.0315728 0.027824 0.0145974 0.0319076 0.0284036 
0.00146146 0.0338178 0.0298878 0.00279383 0.0370846 0.0324168 0.0180476 0.0415061 0.0267763 
0.0183459 0.0372004 0.0309255 0.0212804 0.0364281 0.0287984 0.0222301 0.0409894 0.0333079 
0.0040563 0.0442909 0.0283929 0.00856018 0.0467983 0.0254842 0.0115789 0.0445498 0.0290492 
0.0167354 0.0493604 0.0302893 0.0181861 0.0439835 0.0321032 0.00121332 0.0507394 0.0305169 
0.00592874 0.0634972 0.0289641 0.00627432 0.0641002 0.0324225 0.0145236 0.0586155 0.030518 
0.0146122 0.0605922 0.029279 0.0179495 0.0657639 0.0273672 0.00401247 0.0674778 0.029483 
0.0076424 0.06812 0.0268564 0.00461083 0.0693915 0.0252333 0.00852214 0.0739399 0.0331388 
0.0141255 0.0713066 0.0301499 0.018148 0.0696201 0.0316833 0.00201074 0.00778063 0.0376384 
0.0184125 0.00722762 0.0395906 0.0196505 0.00623721 0.0414121 0.0168759 0.00457246 0.0397139 
0.0117053 0.0114401 0.0393861 0.00720573 0.00850856 0.0412495 0.00196373 0.0139166 0.0388164 
0.0192508 0.0121042 0.0339061 0.0221154 0.0155542 0.0374629 0.0155181 0.0143095 0.040008 
0.0169646 0.010655 0.0415874 0.00332332 0.0221991 0.0399885 0.0106431 0.0185575 0.0383561 
0.00752008 0.0188469 0.0339604 0.00410589 0.0240813 0.0334426 0.00284916 0.0182006 0.039192 
0.0152654 0.0192084 0.0338919 0.00948369 0.0264072 0.0402265 0.0167479 0.0286921 0.0408597 
0.0202707 0.0295577 0.040317 0.0186557 0.0323328 0.0370607 0.0146873 0.0275178 0.0367231 
0.0198608 0.0271607 0.0361333 0.00526846 0.0341313 0.037837 0.0232982 0.0395975 0.0360267 
0.0180118 0.0404232 0.0371501 0.00206722 0.0490577 0.0351042 0.00453327 0.0460152 0.0407262 
0.00244266 0.0432347 0.0382056 0.01246 0.0470766 0.0367867 0.0166053 0.0420962 0.034465 
0.0197783 0.0445287 0.0374876 0.0144791 0.0451404 0.0401179 0.0113834 0.0510835 0.0338875 
0.0050846 0.0525834 0.0375945 0.0107237 0.051664 0.0365906 0.0134683 0.0546227 0.0376235 
0.0204697 0.0577288 0.0394491 0.00177619 0.0636726 0.0377609 0.0092374 0.0654349 0.0354761 
0.0203342 0.0657963 0.0350355 0.0194319 0.0654802 0.0407434 0.018602 0.0595401 0.0360725 
0.0126531 0.0667646 0.0347432 0.0138841 0.0675286 0.0409318 0.0229404 0.0739582 0.0364016 
0.0167587 0.0727939 0.0391488 0.00937192 0.00597929 0.0473002 0.0183938 0.00438148 0.0455991 
0.00383572 0.00922304 0.0444449 0.00259207 0.0153147 0.0474188 0.0101446 0.0121864 0.0466524 
0.0162078 0.0160373 0.0454583 0.0189309 0.0107493 0.0456005 0.020883 0.0162296 0.048029 
0.0135147 0.0161842 0.0429945 0.015344 0.0226414 0.0435454 0.0185941 0.0221777 0.0459625 
0.0180558 0.0241192 0.0483682 0.0193423 0.0202005 0.0438787 0.0136218 0.0201025 0.0447963 
0.0162136 0.0169526 0.0488147 0.00530827 0.0253327 0.0463832 0.019371 0.0262737 0.0430575 
0.0120241 0.030125 0.0443143 0.0191084 0.0327041 0.0431709 0.00772468 0.0395226 0.0419505 
0.0101508 0.0412807 0.041879 0.0100265 0.0378009 0.0481087 0.00361778 0.0375863 0.0450507 
0.00362774 0.0357525 0.0466207 0.0136965 0.0415842 0.0421996 0.00916995 0.0478454 0.0452856 
0.00161446 0.044543 0.0435958 0.0118188 0.0429682 0.0468779 0.0111562 0.0427002 0.0446841 
0.013948 0.0479208 0.0419529 0.0208308 0.0467032 0.0464602 0.013277 0.0556374 0.0490339 
0.00259861 0.0590412 0.0420672 0.00197749 0.0612414 0.0437931 0.0188145 0.0656235 0.0430725 
0.0118293 0.0701352 0.0448477 0.00971443 0.0698716 0.0426819 0.011161 0.0711665 0.0481202 
0.00323431 0.0722822 0.0486115 0.0182738 0.0716393 0.0468338 0.0205314 0.0712685 0.0438833 
0.0219494 0.0737763 0.0435305 0.0187103 0.0518343 0.0419281 0.00696538 0.0599205 0.043392 
0.00288355 0.024311 0.0482617 0.00230251 0.0322374 0.0255753 0.00890187 0.0679317 0.020973 
0.0174635 0.042491 0.0485946 
VERTICES 172 344
1 0 
1 1 
1 2 
1 3 
1 4 
1 5 
1 6 
1 7 
1 8 
1 9 
1 10 
1 11 
1 12 
1 13 
1 14 
1 15 
1 16 
1 17 
1 18 
1 19 
1 20 
1 21 
1 22 
1 23 
1 24 
1 25 
1 26 
1 27 
1 28 
1 29 
1 30 
1 31 
1 32 
1 33 
1 34 
1 35 
1 36 
1 37 
1 38 
1 39 
1 40 
1 41 
1 42 
1 43 
1 44 
1 45 
1 46 
1 47 
1 48 
1 49 
1 50 
1 51 
1 52 
1 53 
1 54 
1 55 
1 56 
1 57 
1 58 
1 59 
1 60 
1 61 
1 62 
1 63 
1 64 
1 65 
1 66 
1 67 
1 68 
1 69 
1 70 
1 71 
1 72 
1 73 
1 74 
1 75 
1 76 
1 77 
1 78 
1 79 
1 80 
1 81 
1 82 
1 83 
1 84 
1 85 
1 86 
1 87 
1 88 
1 89 
1 90 
1 91 
1 92 
1 93 
1 94 
1 95 
1 96 
1 97 
1 98 
1 99 
1 100 
1 101 
1 102 
1 103 
1 104 
1 105 
1 106 
1 107 
1 108 
1 109 
1 110 
1 111 
1 112 
1 113 
1 114 
1 115 
1 116 
1 117 
1 118 
1 119 
1 120 
1 121 
1 122 
1 123 
1 124 
1 125 
1 126 
1 127 
1 128 
1 129 
1 130 
1 131 
1 132 
1 133 
1 134 
1 135 
1 136 
1 137 
1 138 
1 139 
1 140 
1 141 
1 142 
1 143 
1 144 
1 145 
1 146 
1 147 
1 148 
1 149 
1 150 
1 151 
1 152 
1 153 
1 154 
1 155 
1 156 
1 157 
1 158 
1 159 
1 160 
1 161 
1 162 
1 163 
1 164 
1 165 
1 166 
1 167 
1 168 
1 169 
1 170 
1 171 

POINT_DATA 172
FIELD FieldData 7
id 1 172 int
35 125 114 15 68 83 98 91 100 
22 58 74 3 106 7 55 99 78 
21 139 109 128 163 88 94 121 135 
40 86 69 148 45 47 5 56 140 
65 87 41 36 4 110 84 105 112 
155 93 103 111 151 31 34 66 96 
20 48 46 95 127 80 24 32 63 
57 161 53 17 79 82 85 138 29 
51 136 156 64 158 162 10 59 118 
52 73 164 19 75 89 60 27 37 
42 54 137 77 129 23 33 44 92 
102 104 13 133 6 30 141 115 143 
150 160 43 122 149 38 166 71 142 
28 97 152 14 67 134 153 9 26 
12 61 62 101 113 123 146 2 25 
81 107 147 154 108 116 144 145 1 
11 90 124 132 49 76 117 126 165 
72 120 70 119 157 39 8 16 18 
130 50 131 159 167 168 169 170 171 
172 
type 1 172 int
1 1 1 1 1 1 1 1 1 
1 1 1 1 1 1 1 1 1 
1 1 1 1 1 1 1 1 1 
1 1 1 1 1 1 1 1 1 
1 1 1 1 1 1 1 1 1 
1 1 1 1 1 1 1 1 1 
1 1 1 1 1 1 1 1 1 
1 1 1 1 1 1 1 1 1 
1 1 1 1 1 1 1 1 1 
1 1 1 1 1 1 1 1 1 
1 1 1 1 1 1 1 1 1 
1 1 1 1 1 1 1 1 1 
1 1 1 1 1 1 1 1 1 
1 1 1 1 1 1 1 1 1 
1 1 1 1 1 1 1 1 1 
1 1 1 1 1 1 1 1 1 
1 1 1 1 1 1 1 1 1 
1 1 1 1 1 1 1 1 1 
1 1 1 1 1 1 1 1 1 
1 
i 3 172 int
0 0 0 0 0 0 0 0 0 
0 0 0 0 0 0 0 0 0 
0 0 0 0 0 0 0 0 0 
0 0 0 0 0 0 0 0 0 
0 0 0 0 0 0 0 0 0 
0 0 0 0 0 0 0 0 0 
0 0 0 0 0 0 0 0 0 
0 0 0 0 0 0 0 0 0 
0 0 0 0 0 0 0 0 0 
0 0 0 0 0 0 0 0 0 
0 0 0 0 0 0 0 0 0 
0 0 0 0 0 0 0 0 0 
0 0 0 0 0 0 0 0 0 
0 0 0 0 0 0 0 0 0 
0 0 0 0 0 0 0 0 0 
0 0 0 0 0 0 0 0 0 
0 0 0 0 0 0 0 0 0 
0 0 0 0 0 0 0 0 0 
0 0 0 0 0 0 0 0 0 
0 0 0 0 0 0 0 0 0 
0 0 0 0 0 0 0 0 0 
0 0 0 0 0 0 0 0 0 
0 0 0 0 0 0 0 0 0 
0 0 0 0 0 0 0 0 0 
0 0 0 0 0 0 0 0 0 
0 0 0 0 0 0 0 0 0 
0 0 0 0 0 0 0 0 0 
0 0 0 0 0 0 0 0 0 
0 0 0 0 0 0 0 0 0 
0 0 0 0 0 0 0 0 0 
0 0 0 0 0 0 0 0 0 
0 0 0 0 0 0 0 0 0 
0 0 0 0 0 0 0 0 0 
0 0 0 0 0 0 0 0 0 
0 0 0 0 0 0 0 0 0 
0 0 0 0 0 0 0 0 0 
0 0 0 0 0 0 0 0 0 
0 0 0 0 0 0 0 0 0 
0 0 0 0 0 0 0 0 0 
0 0 0 0 0 0 0 0 0 
0 0 0 0 0 0 0 0 0 
0 0 0 0 0 0 0 0 0 
0 0 0 0 0 0 0 0 0 
0 0 0 0 0 0 0 0 0 
0 0 0 0 0 0 0 0 0 
0 0 0 0 0 0 0 0 0 
0 0 0 0 0 0 0 0 0 
0 0 0 0 0 0 0 0 0 
0 0 0 0 0 0 0 0 0 
0 0 0 0 0 0 0 0 0 
0 0 0 0 0 0 0 0 0 
0 0 0 0 0 0 0 0 0 
0 0 0 0 0 0 0 0 0 
0 0 0 0 0 0 0 0 0 
0 0 0 0 0 0 0 0 0 
0 0 0 0 0 0 0 0 0 
0 0 0 0 0 0 0 0 0 
0 0 0 
v 3 172 double
0 0 -0.60746 0 0 -0.228303 0 0 -0.276127 
0 0 -0.647926 0 0 -0.457121 0 0 -0.39679 
0 0 -0.337194 0 0 -0.353626 0 0 -0.328856 
0 0 -0.638116 0 0 -0.506662 0 0 -0.424748 
0 0 -0.712917 0 0 -0.316838 0 0 -0.695014 
0 0 -0.515 0 0 -0.330572 0 0 -0.408807 
0 0 -0.638852 0 0 -0.165764 0 0 -0.309481 
0 0 -0.217267 0 0 -0.0522137 0 0 -0.369567 
0 0 -0.338911 0 0 -0.261412 0 0 -0.183668 
0 0 -0.561843 0 0 -0.380113 0 0 -0.45565 
0 0 -0.116714 0 0 -0.542223 0 0 -0.540016 
0 0 -0.707276 0 0 -0.511812 0 0 -0.165029 
0 0 -0.468893 0 0 -0.378887 0 0 -0.555467 
0 0 -0.60329 0 0 -0.709729 0 0 -0.305557 
0 0 -0.384773 0 0 -0.317329 0 0 -0.295502 
0 0 -0.079927 0 0 -0.343571 0 0 -0.319781 
0 0 -0.304331 0 0 -0.106659 0 0 -0.6131 
0 0 -0.607705 0 0 -0.464234 0 0 -0.337685 
0 0 -0.639587 0 0 -0.53879 0 0 -0.541487 
0 0 -0.33842 0 0 -0.218003 0 0 -0.406845 
0 0 -0.629042 0 0 -0.611138 0 0 -0.471101 
0 0 -0.50936 0 0 -0.0571187 0 0 -0.529961 
0 0 -0.645964 0 0 -0.408562 0 0 -0.397771 
0 0 -0.384282 0 0 -0.170915 0 0 -0.617024 
0 0 -0.537073 0 0 -0.179253 0 0 -0.0791912 
0 0 -0.470855 0 0 -0.0679097 0 0 -0.052459 
0 0 -0.692316 0 0 -0.492683 0 0 -0.264355 
0 0 -0.534375 0 0 -0.434313 0 0 -0.0509875 
0 0 -0.64204 0 0 -0.419843 0 0 -0.357059 
0 0 -0.490475 0 0 -0.621194 0 0 -0.602064 
0 0 -0.548354 0 0 -0.527999 0 0 -0.173367 
0 0 -0.413222 0 0 -0.215305 0 0 -0.631739 
0 0 -0.610157 0 0 -0.543449 0 0 -0.351419 
0 0 -0.323215 0 0 -0.319536 0 0 -0.66681 
0 0 -0.204023 0 0 -0.70556 0 0 -0.615062 
0 0 -0.161595 0 0 -0.275391 0 0 -0.129713 
0 0 -0.111319 0 0 -0.0605522 0 0 -0.544676 
0 0 -0.257488 0 0 -0.114262 0 0 -0.599857 
0 0 -0.0500065 0 0 -0.445104 0 0 -0.147861 
0 0 -0.618496 0.0232704 -0.00540039 -0.454162 0 0 -0.103716 
0 0 -0.65651 0 0 -0.461781 0 0 -0.188573 
0 0 -0.0958682 0 0 -0.693052 0 0 -0.62291 
0 0 -0.673922 0 0 -0.488268 0 0 -0.484589 
0 0 -0.328365 0 0 -0.282013 0 0 -0.249395 
0 0 -0.123827 0 0 -0.716596 0 0 -0.626344 
0 0 -0.405619 0 0 -0.315857 0 0 -0.123091 
0 0 -0.0836057 0 0 -0.309971 0 0 -0.272448 
0 0 -0.126524 0 0 -0.125298 0 0 -0.718067 
0 0 -0.680544 0 0 -0.355833 0 0 -0.233453 
0 0 -0.204514 0 0 -0.538054 0 0 -0.414448 
0 0 -0.26975 0 0 -0.227813 0 0 -0.0502517 
0 0 -0.438973 0 0 -0.262148 0 0 -0.450254 
0 0 -0.263864 0 0 -0.077965 -0.0341309 0.00792081 -0.41517 
0 0 -0.693542 0 0 -0.646945 0 0 -0.643266 
0 0 -0.211871 0 0 -0.537563 0 0 -0.209909 
0 0 -0.0654572 0 0 -0.0477992 0 0 -0.0451015 
0 0 -0.03382 0 0 -0.0306317 0 0 -0.0252362 
0 0 -0.000711225 
f 3 172 double
0 0 -8.28938e-05 0 0 -1.2216e-05 0 0 -3.85351e-05 
0 0 -3.85351e-05 0 0 -0.000178278 0 0 -8.32682e-06 
0 0 -5.65188e-05 0 0 -1.79051e-05 0 0 -8.32682e-06 
0 0 -2.62731e-05 0 0 -1.79051e-05 0 0 -3.85351e-05 
0 0 -1.2216e-05 0 0 -5.67349e-06 0 0 -1.79051e-05 
0 0 -3.85351e-05 0 0 -1.79051e-05 0 0 -1.2216e-05 
0 0 -1.79051e-05 0 0 -3.85351e-05 0 0 -3.8636e-06 
0 0 -1.2216e-05 0 0 -1.79051e-05 0 0 -1.2216e-05 
0 0 -3.85351e-05 0 0 -1.2216e-05 0 0 -1.2216e-05 
0 0 -5.67349e-06 0 0 -3.85351e-05 0 0 -2.62731e-05 
0 0 -5.67349e-06 0 0 -5.65188e-05 0 0 -5.67349e-06 
0 0 -5.65188e-05 0 0 -1.2216e-05 0 0 -1.2216e-05 
0 0 -8.32682e-06 0 0 -8.32682e-06 0 0 -2.62731e-05 
0 0 -8.28938e-05 0 0 -3.85351e-05 0 0 -5.67349e-06 
0 0 -3.85351e-05 0 0 -1.2216e-05 0 0 -2.62731e-05 
0 0 -5.65188e-05 0 0 -1.2216e-05 0 0 -8.28938e-05 
0 0 -3.85351e-05 0 0 -2.62731e-05 0 0 -5.65188e-05 
0 0 -1.79051e-05 0 0 -8.32682e-06 0 0 -1.2216e-05 
0 0 -1.2216e-05 0 0 -5.65188e-05 0 0 -2.62731e-05 
0 0 -1.79051e-05 0 0 -8.32682e-06 0 0 -3.85351e-05 
0 0 -5.65188e-05 0 0 -1.79051e-05 0 0 -0.000121567 
0 0 -5.65188e-05 0 0 -2.62731e-05 0 0 -1.79051e-05 
0 0 -2.62731e-05 0 0 -3.85351e-05 0 0 -5.65188e-05 
0 0 -8.32682e-06 0 0 -5.67349e-06 0 0 -2.62731e-05 
0 0 -8.32682e-06 0 0 -1.79051e-05 0 0 -8.32682e-06 
0 0 -3.85351e-05 0 0 -0.000178278 0 0 -1.2216e-05 
0 0 -1.2216e-05 0 0 -1.79051e-05 0 0 -5.65188e-05 
0 0 -1.79051e-05 0 0 -3.85351e-05 0 0 -5.67349e-06 
0 0 -5.65188e-05 0 0 -1.79051e-05 0 0 -1.79051e-05 
0 0 -0.000121567 0 0 -5.65188e-05 0 0 -0.000121567 
0 0 -2.62731e-05 0 0 -3.85351e-05 0 0 -8.32682e-06 
0 0 -1.79051e-05 0 0 -8.32682e-06 0 0 -1.79051e-05 
0 0 -0.000178278 0 0 -1.79051e-05 0 0 -3.85351e-05 
0 0 -5.67349e-06 0 0 -1.2216e-05 0 0 -5.67349e-06 
0 0 -1.2216e-05 0 0 -3.85351e-05 0 0 -3.85351e-05 
0 0 -1.79051e-05 0 0 -5.65188e-05 0 0 -8.32682e-06 
0 0 -5.65188e-05 0 0 -8.28938e-05 0 0 -5.67349e-06 
0 0 -3.85351e-05 0 0 -1.79051e-05 0 0 -2.62731e-05 
0 0 -1.2216e-05 0 0 -5.67349e-06 0 0 -1.79051e-05 
0 0 -1.79051e-05 -1.65536e-05 3.84161e-06 3.41732e-05 0 0 -1.79051e-05 
0 0 -8.32682e-06 0 0 -8.32682e-06 0 0 -5.67349e-06 
0 0 -8.32682e-06 0 0 -0.000121567 0 0 -8.28938e-05 
0 0 -1.79051e-05 0 0 -1.79051e-05 0 0 -0.000178278 
0 0 -1.2216e-05 0 0 -1.79051e-05 0 0 -3.85351e-05 
0 0 -1.2216e-05 0 0 -0.000121567 0 0 -5.65188e-05 
0 0 -2.62731e-05 0 0 -1.79051e-05 0 0 -5.67349e-06 
0 0 -2.62731e-05 0 0 -5.65188e-05 0 0 -1.79051e-05 
0 0 -3.85351e-05 0 0 -8.28938e-05 0 0 -2.62731e-05 
0 0 -2.62731e-05 0 0 -2.62731e-05 0 0 -2.62731e-05 
0 0 -1.2216e-05 0 0 -8.32682e-06 0 0 -8.32682e-06 
0 0 -2.62731e-05 0 0 -5.65188e-05 0 0 -8.32682e-06 
0 0 -8.28938e-05 0 0 -3.85351e-05 0 0 -8.32682e-06 
0 0 -1.2216e-05 0 0 -3.85351e-05 1.65536e-05 -3.84161e-06 -9.89815e-05 
0 0 -3.8636e-06 0 0 -3.85351e-05 0 0 -5.67349e-06 
0 0 -1.79051e-05 0 0 -8.28938e-05 0 0 -1.2216e-05 
0 0 -5.67349e-06 0 0 -3.85351e-05 0 0 -5.65188e-05 
0 0 -5.65188e-05 0 0 -3.85351e-05 0 0 -1.79051e-05 
0 0 -3.85351e-05 
radius 1 172 double
0.0016575 0.0008755 0.001284 0.001284 0.0021395 0.0007705 0.00145885 0.0009945 0.0007705 
0.0011301 0.0009945 0.001284 0.0008755 0.000678 0.0009945 0.001284 0.0009945 0.0008755 
0.0009945 0.001284 0.0005965 0.0008755 0.0009945 0.0008755 0.001284 0.0008755 0.0008755 
0.000678 0.001284 0.0011301 0.000678 0.00145885 0.000678 0.00145885 0.0008755 0.0008755 
0.0007705 0.0007705 0.0011301 0.0016575 0.001284 0.000678 0.001284 0.0008755 0.0011301 
0.00145885 0.0008755 0.0016575 0.001284 0.0011301 0.00145885 0.0009945 0.0007705 0.0008755 
0.0008755 0.00145885 0.0011301 0.0009945 0.0007705 0.001284 0.00145885 0.0009945 0.00188315 
0.00145885 0.0011301 0.0009945 0.0011301 0.001284 0.00145885 0.0007705 0.000678 0.0011301 
0.0007705 0.0009945 0.0007705 0.001284 0.0021395 0.0008755 0.0008755 0.0009945 0.00145885 
0.0009945 0.001284 0.000678 0.00145885 0.0009945 0.0009945 0.00188315 0.00145885 0.00188315 
0.0011301 0.001284 0.0007705 0.0009945 0.0007705 0.0009945 0.0021395 0.0009945 0.001284 
0.000678 0.0008755 0.000678 0.0008755 0.001284 0.001284 0.0009945 0.00145885 0.0007705 
0.00145885 0.0016575 0.000678 0.001284 0.0009945 0.0011301 0.0008755 0.000678 0.0009945 
0.0009945 0.001284 0.0009945 0.0007705 0.0007705 0.000678 0.0007705 0.00188315 0.0016575 
0.0009945 0.0009945 0.0021395 0.0008755 0.0009945 0.001284 0.0008755 0.00188315 0.00145885 
0.0011301 0.0009945 0.000678 0.0011301 0.00145885 0.0009945 0.001284 0.0016575 0.0011301 
0.0011301 0.0011301 0.0011301 0.0008755 0.0007705 0.0007705 0.0011301 0.00145885 0.0007705 
0.0016575 0.001284 0.0007705 0.0008755 0.001284 0.0011301 0.0005965 0.001284 0.000678 
0.0009945 0.0016575 0.0008755 0.000678 0.001284 0.00145885 0.00145885 0.001284 0.0009945 
0.001284 
omega 3 172 double
0 0 0 0 0 0 0 0 0 
0 0 0 0 0 0 0 0 0 
0 0 0 0 0 0 0 0 0 
0 0 0 0 0 0 0 0 0 
0 0 0 0 0 0 0 0 0 
0 0 0 0 0 0 0 0 0 
0 0 0 0 0 0 0 0 0 
0 0 0 0 0 0 0 0 0 
0 0 0 0 0 0 0 0 0 
0 0 0 0 0 0 0 0 0 
0 0 0 0 0 0 0 0 0 
0 0 0 0 0 0 0 0 0 
0 0 0 0 0 0 0 0 0 
0 0 0 0 0 0 0 0 0 
0 0 0 0 0 0 0 0 0 
0 0 0 0 0 0 0 0 0 
0 0 0 0 0 0 0 0 0 
0 0 0 0 0 0 0 0 0 
0 0 0 0 0 0 0 0 0 
0 0 0 0 0 0 0 0 0 
0 0 0 0 0 0 0 0 0 
0 0 0 0 0 0 0 0 0 
0 0 0 0 0 0 0 0 0 
0 0 0 0 0 0 0 0 0 
0 0 0 0 0 0 0 0 0 
0 0 0 0 0 0 0 0 0 
0 0 0 0 0 0 0 0 0 
0 0 0 0 0 0 0 0 0 
0 0 0 0 0 0 0 0 0 
0 0 0 0 0 0 0 0 0 
0 0 0 0 0 0 0 0 0 
0 0 0 0 0 0 0 0 0 
0 0 0 0 0 0 0 0 0 
0 0 0 0 0 0 0 0 0 
0 0 0 0 0 0 0 0 0 
0 0 0 0 0 0 0 0 0 
0 0 0 0 0 0 0 0 0 
0 0 0 0 0 0 0 0 0 
0 0 0 0 0 0 0 0 0 
0 0 0 -3.33388 -14.3657 3.52086e-14 0 0 0 
0 0 0 0 0 0 0 0 0 
0 0 0 0 0 0 0 0 0 
0 0 0 0 0 0 0 0 0 
0 0 0 0 0 0 0 0 0 
0 0 0 0 0 0 0 0 0 
0 0 0 0 0 0 0 0 0 
0 0 0 0 0 0 0 0 0 
0 0 0 0 0 0 0 0 0 
0 0 0 0 0 0 0 0 0 
0 0 0 0 0 0 0 0 0 
0 0 0 0 0 0 0 0 0 
0 0 0 0 0 0 0 0 0 
0 0 0 0 0 0 -5.55567 -23.9395 5.86707e-14 
0 0 0 0 0 0 0 0 0 
0 0 0 0 0 0 0 0 0 
0 0 0 0 0 0 0 0 0 
0 0 0 0 0 0 0 0 0 
0 0 0 
