# vtk DataFile Version 4.0
Generated by LIGGGHTS
ASCII
DATASET POLYDATA
POINTS 1543 float
0.00895189 0.00634102 0.0116571 0.00307979 0.00547806 0.010954 0.0094126 0.00260246 0.0121393 
0.00325438 0.00794713 0.0116574 0.000958321 0.00782428 0.0108438 0.00642831 0.00750384 0.0142424 
0.0120029 0.00145915 0.0143598 0.00480316 0.00436017 0.010956 0.00578623 0.00248036 0.0107757 
0.00197941 0.00671073 0.0134948 0.00265234 0.00302177 0.0120109 0.00647673 0.00389279 0.0113451 
0.00565878 0.00285089 0.0122751 0.00696039 0.00765224 0.0107705 0.000773812 0.00362163 0.0138276 
0.00199912 0.00274976 0.0142064 0.00196253 0.00468704 0.0143745 0.00264089 0.00223303 0.0158478 
0.0129498 0.00555145 0.0108046 0.012474 0.00812222 0.0118935 0.0131782 0.00166369 0.0112839 
0.015665 0.00583687 0.01113 0.0211693 0.00402295 0.0114587 0.0171938 0.00370841 0.0115221 
0.0185858 0.00609066 0.011284 0.0227686 0.00127527 0.0111749 0.0151233 0.0011438 0.0108283 
0.0146984 0.00351882 0.0108179 0.0190721 0.000900474 0.0109357 0.0217211 0.00664946 0.0107389 
0.0158177 0.000924417 0.0128848 0.0144379 0.0081713 0.01418 0.0173011 0.00246515 0.0144578 
0.0206814 0.00799444 0.0147401 0.0157191 0.00647387 0.0150174 0.0170996 0.00762551 0.0109552 
0.0202181 0.00583271 0.015399 0.0143537 0.00348982 0.015664 0.0209869 0.00328272 0.016302 
0.00928265 0.00858747 0.0130337 0.00683085 0.0121977 0.0112844 0.00916406 0.0153476 0.0121391 
0.00219654 0.0162748 0.0107705 0.00549835 0.010779 0.0106787 0.0119518 0.0140589 0.0127614 
0.00700052 0.00911054 0.0117267 0.0054097 0.0148616 0.0132736 0.00988588 0.0108686 0.0123449 
0.0047073 0.0111233 0.0126635 0.00282727 0.0141696 0.0119946 0.00153286 0.0111863 0.0127968 
0.00779523 0.0119809 0.0129854 0.000871947 0.0156692 0.0132555 0.00452309 0.0151627 0.0108755 
0.0110187 0.012121 0.0138034 0.00238368 0.0144991 0.0142104 0.00811941 0.010997 0.0156659 
0.010873 0.0109927 0.0157686 0.00196373 0.0139166 0.0161239 0.023122 0.00871671 0.011045 
0.0154527 0.0137799 0.0113161 0.0127968 0.0117932 0.0116574 0.0198686 0.0129834 0.0110772 
0.0154973 0.00857737 0.0110761 0.0162022 0.0159186 0.0108755 0.0172853 0.0103984 0.0112243 
0.022337 0.011925 0.0114711 0.0171687 0.0129551 0.0107796 0.0203029 0.0102262 0.0111912 
0.0155673 0.00997556 0.0129148 0.0186065 0.00845652 0.0129468 0.0227861 0.00936577 0.0132259 
0.0214252 0.0150957 0.0127374 0.0162565 0.0144911 0.0131926 0.0183161 0.0127212 0.0131797 
0.0140273 0.0142713 0.0132311 0.0152516 0.0122649 0.0147897 0.0180724 0.0152813 0.0148999 
0.0229387 0.0151109 0.0152742 0.0120994 0.0148561 0.0153027 0.0162071 0.0145557 0.0163718 
0.0115801 0.016844 0.0136322 0.00724258 0.023745 0.0115133 0.00400311 0.0195812 0.0109944 
0.0107325 0.0245008 0.0108802 0.00257643 0.0216272 0.0112839 0.00858427 0.0219008 0.0109165 
0.00575864 0.0212249 0.0112838 0.00113237 0.0196772 0.0114 0.00443244 0.0231257 0.0123896 
0.00273523 0.017456 0.0120335 0.00718281 0.019279 0.0111663 0.00827859 0.0189464 0.0128092 
0.0100408 0.0212308 0.0121417 0.011971 0.024245 0.0125236 0.00718306 0.0233912 0.014478 
0.0102297 0.0182774 0.0130821 0.00660297 0.017331 0.0123502 0.00305348 0.0171723 0.0138413 
0.00220238 0.0231027 0.013611 0.0063628 0.0208228 0.0134441 0.00128124 0.017966 0.0143314 
0.00512178 0.0211038 0.0155339 0.00873819 0.0184171 0.0156767 0.0229797 0.0171846 0.0109995 
0.0132982 0.0174381 0.0116752 0.0148247 0.0225522 0.0109944 0.0225927 0.0226397 0.0108857 
0.0188304 0.0198997 0.0112839 0.0131168 0.0206614 0.0114587 0.0186072 0.0217113 0.0132816 
0.0162213 0.0219983 0.0122113 0.0198035 0.023856 0.01113 0.0210616 0.0174747 0.0107841 
0.0159016 0.0237693 0.0140234 0.0181175 0.0223423 0.0111406 0.0209217 0.0223702 0.0118868 
0.0184921 0.0244029 0.013082 0.0222794 0.0194878 0.0121113 0.0164249 0.0195072 0.0127448 
0.0145072 0.0247185 0.011329 0.0149728 0.0219241 0.0140848 0.0183855 0.0196538 0.0138173 
0.0230727 0.0179499 0.0141496 0.0129577 0.0186401 0.01437 0.0148469 0.0168896 0.0148843 
0.0209461 0.0211387 0.015128 0.0223195 0.0245125 0.0125885 0.0145411 0.0189354 0.0159924 
0.0216215 0.017416 0.0157444 0.0135406 0.0243802 0.016374 0.0156715 0.0201458 0.0162452 
0.01004 0.0266715 0.0116606 0.0110965 0.0310168 0.010525 0.0108269 0.0295373 0.0107705 
0.00711888 0.028543 0.0112839 0.00925045 0.0314133 0.01113 0.00138889 0.0324569 0.011648 
0.0029662 0.0262871 0.0112819 0.000883936 0.0257773 0.0109414 0.00121313 0.0288798 0.0110336 
0.00546005 0.0268957 0.010943 0.00544647 0.0307838 0.012566 0.0019288 0.0261494 0.0133035 
0.0115109 0.0286054 0.0139295 0.00751446 0.0260208 0.0136306 0.0112009 0.0257257 0.0140802 
0.0111938 0.0317488 0.013668 0.00943722 0.0302848 0.0141345 0.00233131 0.0271086 0.0157411 
0.0164464 0.0251825 0.0110681 0.0199111 0.0273881 0.0112839 0.0141405 0.0279018 0.0111356 
0.0125685 0.0311334 0.0109967 0.0225342 0.0314788 0.0114587 0.0185008 0.0318331 0.0118831 
0.0209614 0.0257153 0.010678 0.0140575 0.0329624 0.0108755 0.0209171 0.03309 0.0114652 
0.0123195 0.0276534 0.0117701 0.0148563 0.0305516 0.0118406 0.0198905 0.0291778 0.013368 
0.0214698 0.0292984 0.0113073 0.0150922 0.0268807 0.0129327 0.0130142 0.0264283 0.0130331 
0.0208708 0.0325216 0.0135652 0.0157783 0.0266296 0.0146878 0.0169677 0.0324613 0.0142733 
0.0138921 0.0325684 0.0143816 0.0197792 0.0291459 0.0158584 0.0226462 0.0322456 0.0159398 
0.0179578 0.0304171 0.0157346 0.0220461 0.0302317 0.0158749 0.00438713 0.0334721 0.0109944 
0.00670501 0.0414823 0.0110457 0.00311644 0.0385246 0.0108927 0.00708002 0.035114 0.010678 
0.0110615 0.0386802 0.0121393 0.000873743 0.0344048 0.0108739 0.00942336 0.0336999 0.0112038 
0.00580453 0.0368211 0.0116573 0.00607892 0.0340426 0.0110565 0.00275367 0.0355972 0.0120775 
0.00720982 0.0397996 0.0133795 0.0116977 0.0338233 0.0135019 0.00418701 0.0401822 0.0124679 
0.00393005 0.037765 0.0140166 0.00983701 0.0370972 0.0147231 0.00188575 0.0404996 0.0143248 
0.00524198 0.0347067 0.0148846 0.00975952 0.0402477 0.0152013 0.0122982 0.0404875 0.0140548 
0.0123268 0.0384165 0.0148978 0.0177059 0.0380748 0.0109944 0.022962 0.0341499 0.0109944 
0.0144642 0.0357847 0.0119153 0.0156687 0.0384702 0.0109944 0.0131123 0.0414225 0.0107704 
0.0207302 0.0387863 0.011883 0.020914 0.035401 0.0117147 0.0231646 0.0358331 0.0125719 
0.0173014 0.0360941 0.0128627 0.01849 0.0408022 0.0108419 0.0225984 0.0381414 0.0144343 
0.015387 0.0372385 0.0159005 0.0228689 0.0338828 0.0142321 0.0231228 0.0362103 0.0160431 
0.017923 0.0408829 0.0161688 0.0215826 0.039441 0.0164841 0.00898526 0.0420141 0.0113306 
0.00689724 0.0474578 0.0109169 0.00435673 0.0483219 0.0114587 0.00865177 0.0467543 0.0109944 
0.00537199 0.0455818 0.0114775 0.00771093 0.0444883 0.01113 0.0106457 0.0446355 0.0119815 
0.00177417 0.0417481 0.0116574 0.00137275 0.0491301 0.0115735 0.00696237 0.048304 0.0126978 
0.0031268 0.0466103 0.0126878 0.0053986 0.04283 0.0112755 0.00367964 0.0470139 0.0146278 
0.0114277 0.0496126 0.0153493 0.00301039 0.0432123 0.0156693 0.0226966 0.0417176 0.0142671 
0.0214057 0.0420123 0.0112839 0.0171986 0.0426464 0.01113 0.0161376 0.0445579 0.010998 
0.0139264 0.0431249 0.010678 0.0142823 0.0459043 0.0112839 0.0225443 0.0455754 0.0107705 
0.0204655 0.048291 0.0124301 0.0158141 0.0447883 0.0137768 0.0129615 0.0464792 0.0130493 
0.0186506 0.0447243 0.0110892 0.0159124 0.0473444 0.0111855 0.0227061 0.0445664 0.0131938 
0.0130939 0.0427248 0.012378 0.0193138 0.0425924 0.0139838 0.0193994 0.0465993 0.0152163 
0.0161783 0.042563 0.014914 0.0145336 0.0456648 0.0159469 0.0146759 0.0418182 0.0158158 
0.0171019 0.0445226 0.0158331 0.0121366 0.0470668 0.0161178 0.00562168 0.0501613 0.0122531 
0.00193498 0.056538 0.0106005 0.00281584 0.0551201 0.01115 0.0074362 0.0527237 0.0109944 
0.00301127 0.0575702 0.0111592 0.0100927 0.0544742 0.0108928 0.00101399 0.0518786 0.0109944 
0.00943887 0.0564318 0.0109217 0.00506449 0.052421 0.0120232 0.006558 0.0554244 0.0118821 
0.0113834 0.0510835 0.0108618 0.00811382 0.0506519 0.0127751 0.0046584 0.0505259 0.0136383 
0.00131745 0.0552238 0.0129985 0.00953474 0.0549667 0.0132443 0.00303262 0.0581038 0.0135551 
0.00686273 0.0533053 0.0142138 0.00265563 0.0538131 0.0151906 0.00112866 0.0569435 0.0148683 
0.00462856 0.0521903 0.0148247 0.0118584 0.0561573 0.0116534 0.00907137 0.0507774 0.0154323 
0.0118566 0.0545829 0.013993 0.00854975 0.053151 0.015939 0.0225 0.0518002 0.0142069 
0.0163156 0.0501566 0.0115157 0.0216634 0.0567312 0.0108755 0.0129009 0.0539454 0.0108764 
0.0149811 0.053453 0.0112889 0.01949 0.0573082 0.0108755 0.0176199 0.0542989 0.0114925 
0.0225448 0.0554154 0.0106773 0.0138209 0.0581724 0.0108755 0.0172865 0.0565527 0.0108874 
0.0212482 0.0542401 0.0126033 0.0183966 0.051438 0.011142 0.0135239 0.0501626 0.0136472 
0.0154704 0.0550775 0.0137009 0.0165507 0.0573782 0.0150896 0.0207313 0.0502736 0.0156421 
0.0141965 0.0571068 0.015045 0.0160115 0.0583618 0.0117002 0.0171779 0.0529924 0.0162512 
0.0152059 0.0578727 0.0163037 0.0051687 0.0592243 0.0108869 0.0109371 0.0611951 0.0111605 
0.00923655 0.0646923 0.0111278 0.00701249 0.0615114 0.011132 0.00123113 0.0637548 0.0109944 
0.00924039 0.0619819 0.0108865 0.00328455 0.0601876 0.0114588 0.00430501 0.0635301 0.011144 
0.00390817 0.0658173 0.0127441 0.00657274 0.0637445 0.0120223 0.0110661 0.0661032 0.0122883 
0.00186128 0.0665325 0.0114759 0.00833379 0.0589316 0.0127348 0.00317299 0.0613188 0.0139566 
0.00251501 0.0640552 0.0138973 0.00937099 0.0633209 0.0147899 0.0114899 0.0662597 0.0162373 
0.0226511 0.0609265 0.0112933 0.0227868 0.0584493 0.0112585 0.0124462 0.0629231 0.0109944 
0.0192395 0.059845 0.0107884 0.0138627 0.0611135 0.01113 0.0141129 0.0644737 0.0112948 
0.0182952 0.0647029 0.010678 0.0209291 0.0664244 0.011883 0.0169063 0.0630954 0.0107708 
0.0172433 0.0610165 0.0113164 0.0159729 0.065989 0.0110826 0.0225199 0.0634547 0.0123809 
0.0205502 0.0612265 0.0107948 0.0231207 0.0610538 0.0134519 0.0212863 0.0587673 0.0133523 
0.016742 0.063774 0.0133864 0.0215009 0.066239 0.0146984 0.0206229 0.0642445 0.0134455 
[...]
POINT_DATA 1543
FIELD FieldData 7
id 1 1543 int
35 125 403 461 47 442 45 707 399 
65 549 271 304 235 512 446 434 272 
449 367 114 290 197 5 412 568 599 
332 140 509 572 553 660 934 675 56 
1154 894 643 373 15 68 83 510 408 
654 781 305 336 951 473 582 827 355 
390 41 243 635 164 232 414 36 400 
753 105 710 816 754 824 340 205 177 
180 569 19 910 397 1069 75 327 681 
281 98 394 110 310 794 4 500 54 
790 42 87 429 638 406 209 179 353 
583 740 802 366 37 475 227 91 307 
443 155 344 761 370 354 112 190 749 
84 456 689 58 828 380 436 1092 846 
249 263 77 711 853 1316 188 225 100 
111 151 170 479 261 371 93 103 991 
721 823 254 629 556 468 280 74 22 
34 301 285 422 96 66 780 31 691 
186 777 682 739 176 44 294 940 411 
201 357 349 3 196 106 450 20 226 
350 626 519 245 701 330 48 1131 838 
738 537 283 919 7 99 293 265 276 
338 698 127 95 181 946 296 899 13 
268 952 273 78 343 32 24 407 63 
684 6 533 494 417 437 1029 267 80 
55 46 21 253 139 189 491 604 795 
565 238 627 328 594 702 499 391 897 
161 115 206 109 128 163 279 228 53 
873 668 559 43 822 389 835 378 401 
308 672 306 122 493 636 38 359 242 
57 88 121 94 135 564 244 384 487 
560 430 706 679 848 841 386 82 595 
257 40 284 233 318 574 608 495 17 
694 79 661 224 490 579 508 387 142 
86 240 322 325 382 210 138 323 85 
709 216 269 820 501 375 352 28 470 
266 609 683 915 97 311 171 136 51 
29 287 203 621 195 156 586 64 611 
814 632 1145 218 462 363 358 69 260 
148 314 335 757 184 457 571 158 525 
14 207 134 839 215 640 1147 933 1176 
405 298 162 590 857 404 704 73 719 
936 423 980 12 607 505 425 521 779 
531 185 246 464 59 118 208 529 26 
192 840 485 606 1473 374 270 1004 315 
657 345 187 743 420 720 1014 507 637 
379 782 649 545 524 62 617 792 52 
10 448 517 230 1246 60 89 277 146 
1377 1386 237 221 764 113 278 101 1370 
603 663 27 566 392 1308 395 1155 1389 
341 129 137 726 1451 220 837 994 884 
388 601 1226 478 204 447 1318 1321 102 
1134 107 214 2 372 723 900 25 1109 
1034 876 767 833 612 229 591 540 605 
1267 674 104 829 766 1430 489 92 854 
633 398 1015 1296 458 1505 945 1197 1066 
856 965 199 518 33 23 116 1053 1028 
1338 528 472 1129 554 320 1261 686 324 
11 319 1347 713 634 124 1 346 421 
132 1379 175 1313 1022 1048 211 538 133 
356 236 360 459 715 480 291 1254 1190 
901 737 1038 1125 885 630 1159 141 339 
914 241 690 716 198 451 664 927 1407 
381 165 695 598 76 117 202 30 1175 
1495 1149 329 958 143 615 150 1212 645 
544 255 72 49 160 234 580 302 1312 
1272 1447 1461 778 149 659 511 969 1242 
1343 1007 212 561 1388 988 347 644 861 
685 1356 807 1093 680 971 976 852 797 
418 809 1101 252 1201 717 222 588 725 
613 259 1353 474 410 891 1484 496 746 
167 1524 773 1010 514 602 427 71 918 
584 562 872 784 247 292 1188 157 396 
699 275 481 536 119 303 168 943 585 
152 174 1039 1193 1207 67 759 39 1341 
166 251 930 834 1165 662 231 1486 1027 
666 1512 979 424 728 1346 1054 1395 916 
1315 1051 8 18 539 882 1148 1276 708 
312 904 178 903 1423 467 642 523 153 
954 1026 1032 997 1050 1088 796 482 620 
1156 9 1283 1185 843 692 911 173 282 
1100 1285 1288 1122 727 321 1219 1390 1488 
1172 1507 992 1070 862 731 1112 928 1209 
377 61 477 256 219 1394 557 1478 763 
798 787 1164 653 1256 123 1140 1382 949 
1405 1422 484 274 913 1496 1523 1525 1530 
1133 957 213 818 1205 669 1210 295 182 
1003 1301 169 1348 575 542 299 1216 733 
435 1062 676 548 922 855 81 1005 147 
964 1387 1412 573 1016 735 154 348 1460 
1463 1482 502 624 444 859 744 438 880 
342 108 650 758 217 578 956 619 200 
1490 786 1076 1033 1517 1068 771 546 1102 
250 145 793 696 800 1120 1233 144 419 
191 193 955 678 760 1458 1502 1515 1042 
361 783 1240 262 286 248 90 973 1331 
844 126 465 431 729 333 878 1471 369 
362 469 805 1018 1035 1099 1103 845 647 
1229 1252 409 1337 1192 223 830 616 532 
1438 309 1462 577 1141 1203 1237 1262 868 
705 476 326 810 1391 1396 364 331 504 
194 1522 1531 1052 1083 1115 1030 120 1243 
907 520 752 688 365 172 736 804 527 
239 1476 812 337 558 415 1520 1108 881 
1121 1127 926 1255 667 1335 1385 258 813 
982 1410 651 289 677 1074 288 1493 658 
452 765 1220 317 70 618 426 1310 547 
1350 440 1381 1244 368 1428 1441 1464 1472 
1104 313 1258 1358 433 1363 1012 1041 896 
1426 1433 383 1146 1470 1477 351 1480 1485 
961 826 869 892 1087 334 1167 1171 614 
656 972 297 724 714 183 463 264 300 
453 1253 655 576 803 445 703 748 16 
1045 1065 687 1073 402 439 1206 393 775 
1292 416 428 1309 466 130 641 1459 836 
441 874 541 1001 769 131 50 376 1228 
1235 159 847 788 917 1403 1411 1000 486 
1020 1071 1319 385 920 924 497 1059 492 
975 825 628 886 1398 1409 806 879 1508 
1521 610 670 722 974 1098 526 1260 631 
1047 1344 552 1113 1469 768 1519 1013 1126 
1136 902 1182 535 1270 1361 742 774 1372 
1056 1179 750 1489 503 977 454 1057 875 
1199 831 718 581 1306 1349 1365 1094 1400 
801 929 867 671 1151 756 1169 1186 1214 
1227 938 515 755 1392 1432 1152 789 762 
1509 1064 596 712 1225 534 1282 1336 648 
652 1380 1393 1049 1437 1061 432 950 732 
488 983 1232 498 665 592 623 1383 1397 
939 842 984 1506 905 1200 1096 870 993 
1037 889 1089 751 1174 960 1304 455 1326 
908 1329 1333 849 1067 962 866 1454 1501 
887 1091 1072 1281 673 1307 947 734 1401 
1420 1467 1369 1055 1078 851 316 1077 1107 
1142 516 1218 865 817 1230 1264 625 730 
1289 1332 1399 1406 530 963 995 998 513 
1238 1259 1268 986 1303 1360 1375 1429 772 
1081 1453 1481 1500 808 1116 1514 1516 921 
1002 1118 1138 1009 1293 1311 1324 555 700 
1474 1124 981 1357 819 791 460 1025 1110 
506 646 1058 937 1060 821 912 1465 815 
1157 776 1023 693 1079 471 543 1187 597 
570 1290 1376 860 1378 1300 1135 1274 799 
953 770 1031 587 563 1160 1196 941 1257 
522 985 741 1150 1413 935 942 622 1019 
567 1006 1198 639 1222 600 589 1139 1479 
1497 1183 483 745 898 551 1162 550 1280 
697 1367 811 863 747 1527 883 1017 1021 
785 413 593 1250 1279 1286 895 1494 1046 
1084 1123 1322 1327 1342 1374 864 999 1040 
1063 1075 1117 1130 1224 1328 1368 932 1204 
1231 1236 1245 1248 1340 1416 1424 1431 1483 
970 1105 1163 1277 1339 1351 1384 1418 1439 
1443 925 978 987 1024 1153 1161 1184 1217 
1269 1298 1299 1455 1528 893 959 996 1044 
1086 1137 1181 1194 1294 1323 1325 1373 1448 
1475 1498 1503 906 1036 1202 1215 1284 1434 
1518 1043 1144 1166 1173 1305 1415 1450 1466 
1499 1510 1095 1211 1234 1247 1251 1265 1295 
1302 1427 1442 1457 888 966 968 1195 1221 
1275 1287 1291 1314 1364 1366 1491 931 944 
1011 1170 1297 1330 1359 1435 1513 1529 871 
989 1178 1213 1223 1278 1354 1362 1421 1452 
1456 1468 1487 832 850 1168 1249 1271 1408 
1414 1449 1504 990 1090 1143 1241 1273 1317 
1352 1355 1511 1526 877 923 1008 1085 1114 
1119 1128 1180 1189 1239 1436 1440 1445 858 
948 967 1080 1082 1097 1132 1208 1266 1320 
1402 1419 1106 1111 1263 1371 1417 1446 1492 
890 909 1158 1177 1191 1334 1345 1404 1425 
1444 1532 1533 1534 1535 1536 1537 1538 1539 
1540 1541 1542 1543 
type 1 1543 int
1 1 1 1 1 1 1 1 1 
1 1 1 1 1 1 1 1 1 
1 1 1 1 1 1 1 1 1 
1 1 1 1 1 1 1 1 1 
1 1 1 1 1 1 1 1 1 
1 1 1 1 1 1 1 1 1 
1 1 1 1 1 1 1 1 1 
1 1 1 1 1 1 1 1 1 
1 1 1 1 1 1 1 1 1 
1 1 1 1 1 1 1 1 1 
1 1 1 1 1 1 1 1 1 
1 1 1 1 1 1 1 1 1 
1 1 1 1 1 1 1 1 1 
1 1 1 1 1 1 1 1 1 
1 1 1 1 1 1 1 1 1 
1 1 1 1 1 1 1 1 1 
1 1 1 1 1 1 1 1 1 
1 1 1 1 1 1 1 1 1 
1 1 1 1 1 1 1 1 1 
1 1 1 1 1 1 1 1 1 
1 1 1 1 1 1 1 1 1 
1 1 1 1 1 1 1 1 1 
1 1 1 1 1 1 1 1 1 
1 1 1 1 1 1 1 1 1 
1 1 1 1 1 1 1 1 1 
1 1 1 1 1 1 1 1 1 
1 1 1 1 1 1 1 1 1 
1 1 1 1 1 1 1 1 1 
1 1 1 1 1 1 1 1 1 
1 1 1 1 1 1 1 1 1 
1 1 1 1 1 1 1 1 1 
1 1 1 1 1 1 1 1 1 
1 1 1 1 1 1 1 1 1 
1 1 1 1 1 1 1 1 1 
1 1 1 1 1 1 1 1 1 
1 1 1 1 1 1 1 1 1 
1 1 1 1 1 1 1 1 1 
1 1 1 1 1 1 1 1 1 
1 1 1 1 1 1 1 1 1 
1 1 1 1 1 1 1 1 1 
1 1 1 1 1 1 1 1 1 
1 1 1 1 1 1 1 1 1 
1 1 1 1 1 1 1 1 1 
1 1 1 1 1 1 1 1 1 
1 1 1 1 1 1 1 1 1 
1 1 1 1 1 1 1 1 1 
1 1 1 1 1 1 1 1 1 
1 1 1 1 1 1 1 1 1 
1 1 1 1 1 1 1 1 1 
1 1 1 1 1 1 1 1 1 
1 1 1 1 1 1 1 1 1 
1 1 1 1 1 1 1 1 1 
1 1 1 1 1 1 1 1 1 
1 1 1 1 1 1 1 1 1 
1 1 1 1 1 1 1 1 1 
1 1 1 1 1 1 1 1 1 
1 1 1 1 1 1 1 1 1 
1 1 1 1 1 1 1 1 1 
1 1 1 1 1 1 1 1 1 
1 1 1 1 1 1 1 1 1 
1 1 1 1 1 1 1 1 1 
1 1 1 1 1 1 1 1 1 
1 1 1 1 1 1 1 1 1 
1 1 1 1 1 1 1 1 1 
1 1 1 1 1 1 1 1 1 
1 1 1 1 1 1 1 1 1 
1 1 1 1 1 1 1 1 1 
1 1 1 1 1 1 1 1 1 
1 1 1 1 1 1 1 1 1 
1 1 1 1 1 1 1 1 1 
1 1 1 1 1 1 1 1 1 
1 1 1 1 1 1 1 1 1 
1 1 1 1 1 1 1 1 1 
1 1 1 1 1 1 1 1 1 
1 1 1 1 1 1 1 1 1 
1 1 1 1 1 1 1 1 1 
1 1 1 1 1 1 1 1 1 
1 1 1 1 1 1 1 1 1 
1 1 1 1 1 1 1 1 1 
1 1 1 1 1 1 1 1 1 
1 1 1 1 1 1 1 1 1 
1 1 1 1 1 1 1 1 1 
1 1 1 1 1 1 1 1 1 
1 1 1 1 1 1 1 1 1 
1 1 1 1 1 1 1 1 1 
1 1 1 1 1 1 1 1 1 
1 1 1 1 1 1 1 1 1 
1 1 1 1 1 1 1 1 1 
1 1 1 1 1 1 1 1 1 
1 1 1 1 1 1 1 1 1 
1 1 1 1 1 1 1 1 1 
1 1 1 1 1 1 1 1 1 
1 1 1 1 1 1 1 1 1 
1 1 1 1 1 1 1 1 1 
1 1 1 1 1 1 1 1 1 
1 1 1 1 1 1 1 1 1 
1 1 1 1 1 1 1 1 1 
1 1 1 1 1 1 1 1 1 
1 1 1 1 1 1 1 1 1 
1 1 1 1 1 1 1 1 1 
1 1 1 1 1 1 1 1 1 
1 1 1 1 1 1 1 1 1 
1 1 1 1 1 1 1 1 1 
1 1 1 1 1 1 1 1 1 
1 1 1 1 1 1 1 1 1 
1 1 1 1 1 1 1 1 1 
1 1 1 1 1 1 1 1 1 
1 1 1 1 1 1 1 1 1 
1 1 1 1 1 1 1 1 1 
1 1 1 1 1 1 1 1 1 
1 1 1 1 1 1 1 1 1 
1 1 1 1 1 1 1 1 1 
1 1 1 1 1 1 1 1 1 
1 1 1 1 1 1 1 1 1 
1 1 1 1 1 1 1 1 1 
1 1 1 1 1 1 1 1 1 
1 1 1 1 1 1 1 1 1 
1 1 1 1 1 1 1 1 1 
1 1 1 1 1 1 1 1 1 
1 1 1 1 1 1 1 1 1 
1 1 1 1 1 1 1 1 1 
1 1 1 1 1 1 1 1 1 
1 1 1 1 1 1 1 1 1 
1 1 1 1 1 1 1 1 1 
1 1 1 1 1 1 1 1 1 
1 1 1 1 1 1 1 1 1 
1 1 1 1 1 1 1 1 1 
1 1 1 1 1 1 1 1 1 
1 1 1 1 1 1 1 1 1 
1 1 1 1 1 1 1 1 1 
1 1 1 1 1 1 1 1 1 
1 1 1 1 1 1 1 1 1 
1 1 1 1 1 1 1 1 1 
1 1 1 1 1 1 1 1 1 
1 1 1 1 1 1 1 1 1 
1 1 1 1 1 1 1 1 1 
1 1 1 1 1 1 1 1 1 
1 1 1 1 1 1 1 1 1 
1 1 1 1 1 1 1 1 1 
1 1 1 1 1 1 1 1 1 
1 1 1 1 1 1 1 1 1 
1 1 1 1 1 1 1 1 1 
1 1 1 1 1 1 1 1 1 
1 1 1 1 1 1 1 1 1 
1 1 1 1 1 1 1 1 1 
1 1 1 1 1 1 1 1 1 
1 1 1 1 1 1 1 1 1 
1 1 1 1 1 1 1 1 1 
1 1 1 1 1 1 1 1 1 
1 1 1 1 1 1 1 1 1 
1 1 1 1 1 1 1 1 1 
1 1 1 1 1 1 1 1 1 
1 1 1 1 1 1 1 1 1 
1 1 1 1 1 1 1 1 1 
1 1 1 1 1 1 1 1 1 
1 1 1 1 1 1 1 1 1 
1 1 1 1 1 1 1 1 1 
1 1 1 1 1 1 1 1 1 
1 1 1 1 1 1 1 1 1 
1 1 1 1 1 1 1 1 1 
1 1 1 1 1 1 1 1 1 
1 1 1 1 1 1 1 1 1 
1 1 1 1 1 1 1 1 1 
1 1 1 1 1 1 1 1 1 
1 1 1 1 1 1 1 1 1 
1 1 1 1 1 1 1 1 1 
1 1 1 1 1 1 1 1 1 
1 1 1 1 1 1 1 1 1 
1 1 1 1 1 1 1 1 1 
1 1 1 1 1 1 1 1 1 
1 1 1 1 1 1 1 1 1 
1 1 1 1 
i 3 1543 int
0 0 0 0 0 0 0 0 0 
0 0 0 0 0 0 0 0 0 
0 0 0 0 0 0 0 0 0 
0 0 0 0 0 0 0 0 0 
0 0 0 0 0 0 0 0 0 
0 0 0 0 0 0 0 0 0 
0 0 0 0 0 0 0 0 0 
0 0 0 0 0 0 0 0 0 
0 0 0 0 0 0 0 0 0 
0 0 0 0 0 0 0 0 0 
0 0 0 0 0 0 0 0 0 
0 0 0 0 0 0 0 0 0 
0 0 0 0 0 0 0 0 0 
0 0 0 0 0 0 0 0 0 
0 0 0 0 0 0 0 0 0 
0 0 0 0 0 0 0 0 0 
0 0 0 0 0 0 0 0 0 
0 0 0 0 0 0 0 0 0 
0 0 0 0 0 0 0 0 0 
0 0 0 0 0 0 0 0 0 
0 0 0 0 0 0 0 0 0 
0 0 0 0 0 0 0 0 0 
0 0 0 0 0 0 0 0 0 
0 0 0 0 0 0 0 0 0 
0 0 0 0 0 0 0 0 0 
0 0 0 0 0 0 0 0 0 
0 0 0 0 0 0 0 0 0 
0 0 0 0 0 0 0 0 0 
0 0 0 0 0 0 0 0 0 
0 0 0 0 0 0 0 0 0 
0 0 0 0 0 0 0 0 0 
0 0 0 0 0 0 0 0 0 
0 0 0 0 0 0 0 0 0 
0 0 0 0 0 0 0 0 0 
0 0 0 0 0 0 0 0 0 
0 0 0 0 0 0 0 0 0 
0 0 0 0 0 0 0 0 0 
0 0 0 0 0 0 0 0 0 
0 0 0 0 0 0 0 0 0 
0 0 0 0 0 0 0 0 0 
0 0 0 0 0 0 0 0 0 
0 0 0 0 0 0 0 0 0 
0 0 0 0 0 0 0 0 0 
0 0 0 0 0 0 0 0 0 
0 0 0 0 0 0 0 0 0 
0 0 0 0 0 0 0 0 0 
0 0 0 0 0 0 0 0 0 
0 0 0 0 0 0 0 0 0 
0 0 0 0 0 0 0 0 0 
0 0 0 0 0 0 0 0 0 
0 0 0 0 0 0 0 0 0 
0 0 0 0 0 0 0 0 0 
0 0 0 0 0 0 0 0 0 
0 0 0 0 0 0 0 0 0 
0 0 0 0 0 0 0 0 0 
0 0 0 0 0 0 0 0 0 
0 0 0 0 0 0 0 0 0 
0 0 0 0 0 0 0 0 0 
0 0 0 0 0 0 0 0 0 
0 0 0 0 0 0 0 0 0 
0 0 0 0 0 0 0 0 0 
0 0 0 0 0 0 0 0 0 
0 0 0 0 0 0 0 0 0 
0 0 0 0 0 0 0 0 0 
0 0 0 0 0 0 0 0 0 
0 0 0 0 0 0 0 0 0 
0 0 0 0 0 0 0 0 0 
0 0 0 0 0 0 0 0 0 
0 0 0 0 0 0 0 0 0 
0 0 0 0 0 0 0 0 0 
0 0 0 0 0 0 0 0 0 
0 0 0 0 0 0 0 0 0 
0 0 0 0 0 0 0 0 0 
0 0 0 0 0 0 0 0 0 
0 0 0 0 0 0 0 0 0 
0 0 0 0 0 0 0 0 0 
0 0 0 0 0 0 0 0 0 
0 0 0 0 0 0 0 0 0 
0 0 0 0 0 0 0 0 0 
0 0 0 0 0 0 0 0 0 
0 0 0 0 0 0 0 0 0 
0 0 0 0 0 0 0 0 0 
0 0 0 0 0 0 0 0 0 
0 0 0 0 0 0 0 0 0 
0 0 0 0 0 0 0 0 0 
0 0 0 0 0 0 0 0 0 
0 0 0 0 0 0 0 0 0 
0 0 0 0 0 0 0 0 0 
0 0 0 0 0 0 0 0 0 
0 0 0 0 0 0 0 0 0 
0 0 0 0 0 0 0 0 0 
0 0 0 0 0 0 0 0 0 
0 0 0 0 0 0 0 0 0 
0 0 0 0 0 0 0 0 0 
0 0 0 0 0 0 0 0 0 
0 0 0 0 0 0 0 0 0 
0 0 0 0 0 0 0 0 0 
0 0 0 0 0 0 0 0 0 
0 0 0 0 0 0 0 0 0 
0 0 0 0 0 0 0 0 0 
0 0 0 0 0 0 0 0 0 
0 0 0 0 0 0 0 0 0 
0 0 0 0 0 0 0 0 0 
0 0 0 0 0 0 0 0 0 
0 0 0 0 0 0 0 0 0 
0 0 0 0 0 0 0 0 0 
0 0 0 0 0 0 0 0 0 
0 0 0 0 0 0 0 0 0 
0 0 0 0 0 0 0 0 0 
0 0 0 0 0 0 0 0 0 
0 0 0 0 0 0 0 0 0 
0 0 0 0 0 0 0 0 0 
0 0 0 0 0 0 0 0 0 
0 0 0 0 0 0 0 0 0 
0 0 0 0 0 0 0 0 0 
0 0 0 0 0 0 0 0 0 
0 0 0 0 0 0 0 0 0 
0 0 0 0 0 0 0 0 0 
0 0 0 0 0 0 0 0 0 
0 0 0 0 0 0 0 0 0 
0 0 0 0 0 0 0 0 0 
0 0 0 0 0 0 0 0 0 
0 0 0 0 0 0 0 0 0 
0 0 0 0 0 0 0 0 0 
0 0 0 0 0 0 0 0 0 
0 0 0 0 0 0 0 0 0 
0 0 0 0 0 0 0 0 0 
0 0 0 0 0 0 0 0 0 
0 0 0 0 0 0 0 0 0 
0 0 0 0 0 0 0 0 0 
0 0 0 0 0 0 0 0 0 
0 0 0 0 0 0 0 0 0 
0 0 0 0 0 0 0 0 0 
0 0 0 0 0 0 0 0 0 
0 0 0 0 0 0 0 0 0 
0 0 0 0 0 0 0 0 0 
0 0 0 0 0 0 0 0 0 
0 0 0 0 0 0 0 0 0 
0 0 0 0 0 0 0 0 0 
0 0 0 0 0 0 0 0 0 
0 0 0 0 0 0 0 0 0 
0 0 0 0 0 0 0 0 0 
0 0 0 0 0 0 0 0 0 
0 0 0 0 0 0 0 0 0 
0 0 0 0 0 0 0 0 0 
0 0 0 0 0 0 0 0 0 
0 0 0 0 0 0 0 0 0 
0 0 0 0 0 0 0 0 0 
0 0 0 0 0 0 0 0 0 
0 0 0 0 0 0 0 0 0 
0 0 0 0 0 0 0 0 0 
0 0 0 0 0 0 0 0 0 
0 0 0 0 0 0 0 0 0 
0 0 0 0 0 0 0 0 0 
0 0 0 0 0 0 0 0 0 
0 0 0 0 0 0 0 0 0 
0 0 0 0 0 0 0 0 0 
0 0 0 0 0 0 0 0 0 
0 0 0 0 0 0 0 0 0 
0 0 0 0 0 0 0 0 0 
0 0 0 0 0 0 0 0 0 
0 0 0 0 0 0 0 0 0 
0 0 0 0 0 0 0 0 0 
0 0 0 0 0 0 0 0 0 
0 0 0 0 0 0 0 0 0 
0 0 0 0 0 0 0 0 0 
0 0 0 0 0 0 0 0 0 
0 0 0 0 0 0 0 0 0 
0 0 0 0 0 0 0 0 0 
0 0 0 0 0 0 0 0 0 
0 0 0 0 0 0 0 0 0 
0 0 0 0 0 0 0 0 0 
0 0 0 0 0 0 0 0 0 
0 0 0 0 0 0 0 0 0 
0 0 0 0 0 0 0 0 0 
0 0 0 0 0 0 0 0 0 
0 0 0 0 0 0 0 0 0 
0 0 0 0 0 0 0 0 0 
0 0 0 0 0 0 0 0 0 
0 0 0 0 0 0 0 0 0 
0 0 0 0 0 0 0 0 0 
0 0 0 0 0 0 0 0 0 
0 0 0 0 0 0 0 0 0 
0 0 0 0 0 0 0 0 0 
0 0 0 0 0 0 0 0 0 
0 0 0 0 0 0 0 0 0 
0 0 0 0 0 0 0 0 0 
0 0 0 0 0 0 0 0 0 
0 0 0 0 0 0 0 0 0 
0 0 0 0 0 0 0 0 0 
0 0 0 0 0 0 0 0 0 
0 0 0 0 0 0 0 0 0 
0 0 0 0 0 0 0 0 0 
0 0 0 0 0 0 0 0 0 
0 0 0 0 0 0 0 0 0 
0 0 0 0 0 0 0 0 0 
0 0 0 0 0 0 0 0 0 
0 0 0 0 0 0 0 0 0 
0 0 0 0 0 0 0 0 0 
0 0 0 0 0 0 0 0 0 
0 0 0 0 0 0 0 0 0 
0 0 0 0 0 0 0 0 0 
0 0 0 0 0 0 0 0 0 
0 0 0 0 0 0 0 0 0 
0 0 0 0 0 0 0 0 0 
0 0 0 0 0 0 0 0 0 
0 0 0 0 0 0 0 0 0 
0 0 0 0 0 0 0 0 0 
0 0 0 0 0 0 0 0 0 
0 0 0 0 0 0 0 0 0 
0 0 0 0 0 0 0 0 0 
0 0 0 0 0 0 0 0 0 
0 0 0 0 0 0 0 0 0 
0 0 0 0 0 0 0 0 0 
0 0 0 0 0 0 0 0 0 
0 0 0 0 0 0 0 0 0 
0 0 0 0 0 0 0 0 0 
0 0 0 0 0 0 0 0 0 
0 0 0 0 0 0 0 0 0 
0 0 0 0 0 0 0 0 0 
0 0 0 0 0 0 0 0 0 
0 0 0 0 0 0 0 0 0 
0 0 0 0 0 0 0 0 0 
0 0 0 0 0 0 0 0 0 
0 0 0 0 0 0 0 0 0 
0 0 0 0 0 0 0 0 0 
0 0 0 0 0 0 0 0 0 
0 0 0 0 0 0 0 0 0 
0 0 0 0 0 0 0 0 0 
0 0 0 0 0 0 0 0 0 
0 0 0 0 0 0 0 0 0 
0 0 0 0 0 0 0 0 0 
0 0 0 0 0 0 0 0 0 
0 0 0 0 0 0 0 0 0 
0 0 0 0 0 0 0 0 0 
0 0 0 0 0 0 0 0 0 
0 0 0 0 0 0 0 0 0 
0 0 0 0 0 0 0 0 0 
0 0 0 0 0 0 0 0 0 
0 0 0 0 0 0 0 0 0 
0 0 0 0 0 0 0 0 0 
0 0 0 0 0 0 0 0 0 
0 0 0 0 0 0 0 0 0 
0 0 0 0 0 0 0 0 0 
0 0 0 0 0 0 0 0 0 
0 0 0 0 0 0 0 0 0 
0 0 0 0 0 0 0 0 0 
0 0 0 0 0 0 0 0 0 
0 0 0 0 0 0 0 0 0 
0 0 0 0 0 0 0 0 0 
0 0 0 0 0 0 0 0 0 
0 0 0 0 0 0 0 0 0 
0 0 0 0 0 0 0 0 0 
0 0 0 0 0 0 0 0 0 
0 0 0 0 0 0 0 0 0 
0 0 0 0 0 0 0 0 0 
0 0 0 0 0 0 0 0 0 
0 0 0 0 0 0 0 0 0 
0 0 0 0 0 0 0 0 0 
0 0 0 0 0 0 0 0 0 
0 0 0 0 0 0 0 0 0 
0 0 0 0 0 0 0 0 0 
0 0 0 0 0 0 0 0 0 
0 0 0 0 0 0 0 0 0 
0 0 0 0 0 0 0 0 0 
0 0 0 0 0 0 0 0 0 
0 0 0 0 0 0 0 0 0 
0 0 0 0 0 0 0 0 0 
0 0 0 0 0 0 0 0 0 
0 0 0 0 0 0 0 0 0 
0 0 0 0 0 0 0 0 0 
0 0 0 0 0 0 0 0 0 
0 0 0 0 0 0 0 0 0 
0 0 0 0 0 0 0 0 0 
0 0 0 0 0 0 0 0 0 
0 0 0 0 0 0 0 0 0 
0 0 0 0 0 0 0 0 0 
0 0 0 0 0 0 0 0 0 
0 0 0 0 0 0 0 0 0 
0 0 0 0 0 0 0 0 0 
0 0 0 0 0 0 0 0 0 
0 0 0 0 0 0 0 0 0 
0 0 0 0 0 0 0 0 0 
0 0 0 0 0 0 0 0 0 
0 0 0 0 0 0 0 0 0 
0 0 0 0 0 0 0 0 0 
0 0 0 0 0 0 0 0 0 
0 0 0 0 0 0 0 0 0 
0 0 0 0 0 0 0 0 0 
0 0 0 0 0 0 0 0 0 
0 0 0 0 0 0 0 0 0 
0 0 0 0 0 0 0 0 0 
0 0 0 0 0 0 0 0 0 
0 0 0 0 0 0 0 0 0 
0 0 0 0 0 0 0 0 0 
0 0 0 0 0 0 0 0 0 
0 0 0 0 0 0 0 0 0 
0 0 0 0 0 0 0 0 0 
0 0 0 0 0 0 0 0 0 
0 0 0 0 0 0 0 0 0 
0 0 0 0 0 0 0 0 0 
0 0 0 0 0 0 0 0 0 
0 0 0 0 0 0 0 0 0 
0 0 0 0 0 0 0 0 0 
0 0 0 0 0 0 0 0 0 
0 0 0 0 0 0 0 0 0 
0 0 0 0 0 0 0 0 0 
0 0 0 0 0 0 0 0 0 
0 0 0 0 0 0 0 0 0 
0 0 0 0 0 0 0 0 0 
0 0 0 0 0 0 0 0 0 
0 0 0 0 0 0 0 0 0 
0 0 0 0 0 0 0 0 0 
0 0 0 0 0 0 0 0 0 
0 0 0 0 0 0 0 0 0 
0 0 0 0 0 0 0 0 0 
0 0 0 0 0 0 0 0 0 
0 0 0 0 0 0 0 0 0 
0 0 0 0 0 0 0 0 0 
0 0 0 0 0 0 0 0 0 
0 0 0 0 0 0 0 0 0 
0 0 0 0 0 0 0 0 0 
0 0 0 0 0 0 0 0 0 
0 0 0 0 0 0 0 0 0 
0 0 0 0 0 0 0 0 0 
0 0 0 0 0 0 0 0 0 
0 0 0 0 0 0 0 0 0 
0 0 0 0 0 0 0 0 0 
0 0 0 0 0 0 0 0 0 
0 0 0 0 0 0 0 0 0 
0 0 0 0 0 0 0 0 0 
0 0 0 0 0 0 0 0 0 
0 0 0 0 0 0 0 0 0 
0 0 0 0 0 0 0 0 0 
0 0 0 0 0 0 0 0 0 
0 0 0 0 0 0 0 0 0 
0 0 0 0 0 0 0 0 0 
0 0 0 0 0 0 0 0 0 
0 0 0 0 0 0 0 0 0 
0 0 0 0 0 0 0 0 0 
0 0 0 0 0 0 0 0 0 
0 0 0 0 0 0 0 0 0 
0 0 0 0 0 0 0 0 0 
0 0 0 0 0 0 0 0 0 
0 0 0 0 0 0 0 0 0 
0 0 0 0 0 0 0 0 0 
0 0 0 0 0 0 0 0 0 
0 0 0 0 0 0 0 0 0 
0 0 0 0 0 0 0 0 0 
0 0 0 0 0 0 0 0 0 
0 0 0 0 0 0 0 0 0 
0 0 0 0 0 0 0 0 0 
0 0 0 0 0 0 0 0 0 
0 0 0 0 0 0 0 0 0 
0 0 0 0 0 0 0 0 0 
0 0 0 0 0 0 0 0 0 
0 0 0 0 0 0 0 0 0 
0 0 0 0 0 0 0 0 0 
0 0 0 0 0 0 0 0 0 
0 0 0 0 0 0 0 0 0 
0 0 0 0 0 0 0 0 0 
0 0 0 0 0 0 0 0 0 
0 0 0 0 0 0 0 0 0 
0 0 0 0 0 0 0 0 0 
0 0 0 0 0 0 0 0 0 
0 0 0 0 0 0 0 0 0 
0 0 0 0 0 0 0 0 0 
0 0 0 0 0 0 0 0 0 
0 0 0 0 0 0 0 0 0 
0 0 0 0 0 0 0 0 0 
0 0 0 0 0 0 0 0 0 
0 0 0 0 0 0 0 0 0 
0 0 0 0 0 0 0 0 0 
0 0 0 0 0 0 0 0 0 
0 0 0 0 0 0 0 0 0 
0 0 0 0 0 0 0 0 0 
0 0 0 0 0 0 0 0 0 
0 0 0 0 0 0 0 0 0 
0 0 0 0 0 0 0 0 0 
0 0 0 0 0 0 0 0 0 
0 0 0 0 0 0 0 0 0 
0 0 0 0 0 0 0 0 0 
0 0 0 0 0 0 0 0 0 
0 0 0 0 0 0 0 0 0 
0 0 0 0 0 0 0 0 0 
0 0 0 0 0 0 0 0 0 
0 0 0 0 0 0 0 0 0 
0 0 0 0 0 0 0 0 0 
0 0 0 0 0 0 0 0 0 
0 0 0 0 0 0 0 0 0 
0 0 0 0 0 0 0 0 0 
0 0 0 0 0 0 0 0 0 
0 0 0 0 0 0 0 0 0 
0 0 0 0 0 0 0 0 0 
0 0 0 0 0 0 0 0 0 
0 0 0 0 0 0 0 0 0 
0 0 0 0 0 0 0 0 0 
0 0 0 0 0 0 0 0 0 
0 0 0 0 0 0 0 0 0 
0 0 0 0 0 0 0 0 0 
0 0 0 0 0 0 0 0 0 
0 0 0 0 0 0 0 0 0 
0 0 0 0 0 0 0 0 0 
0 0 0 0 0 0 0 0 0 
0 0 0 0 0 0 0 0 0 
0 0 0 0 0 0 0 0 0 
0 0 0 0 0 0 0 0 0 
0 0 0 0 0 0 0 0 0 
0 0 0 0 0 0 0 0 0 
0 0 0 0 0 0 0 0 0 
0 0 0 0 0 0 0 0 0 
0 0 0 0 0 0 0 0 0 
0 0 0 0 0 0 0 0 0 
0 0 0 0 0 0 0 0 0 
0 0 0 0 0 0 0 0 0 
0 0 0 0 0 0 0 0 0 
0 0 0 0 0 0 0 0 0 
0 0 0 0 0 0 0 0 0 
0 0 0 0 0 0 0 0 0 
0 0 0 0 0 0 0 0 0 
0 0 0 0 0 0 0 0 0 
0 0 0 0 0 0 0 0 0 
0 0 0 0 0 0 0 0 0 
0 0 0 0 0 0 0 0 0 
0 0 0 0 0 0 0 0 0 
0 0 0 0 0 0 0 0 0 
0 0 0 0 0 0 0 0 0 
0 0 0 0 0 0 0 0 0 
0 0 0 0 0 0 0 0 0 
0 0 0 0 0 0 0 0 0 
0 0 0 0 0 0 0 0 0 
0 0 0 0 0 0 0 0 0 
0 0 0 0 0 0 0 0 0 
0 0 0 0 0 0 0 0 0 
0 0 0 0 0 0 0 0 0 
0 0 0 0 0 0 0 0 0 
0 0 0 0 0 0 0 0 0 
0 0 0 0 0 0 0 0 0 
0 0 0 0 0 0 0 0 0 
0 0 0 0 0 0 0 0 0 
0 0 0 0 0 0 0 0 0 
0 0 0 0 0 0 0 0 0 
0 0 0 0 0 0 0 0 0 
0 0 0 0 0 0 0 0 0 
0 0 0 0 0 0 0 0 0 
0 0 0 0 0 0 0 0 0 
0 0 0 0 0 0 0 0 0 
0 0 0 0 0 0 0 0 0 
0 0 0 0 0 0 0 0 0 
0 0 0 0 0 0 0 0 0 
0 0 0 0 0 0 0 0 0 
0 0 0 0 0 0 0 0 0 
0 0 0 0 0 0 0 0 0 
0 0 0 0 0 0 0 0 0 
0 0 0 0 0 0 0 0 0 
0 0 0 0 0 0 0 0 0 
0 0 0 0 0 0 0 0 0 
0 0 0 0 0 0 0 0 0 
0 0 0 0 0 0 0 0 0 
0 0 0 0 0 0 0 0 0 
0 0 0 0 0 0 0 0 0 
0 0 0 0 0 0 0 0 0 
0 0 0 0 0 0 0 0 0 
0 0 0 0 0 0 0 0 0 
0 0 0 0 0 0 0 0 0 
0 0 0 0 0 0 0 0 0 
0 0 0 0 0 0 0 0 0 
0 0 0 0 0 0 0 0 0 
0 0 0 0 0 0 0 0 0 
0 0 0 0 0 0 0 0 0 
0 0 0 0 0 0 0 0 0 
0 0 0 0 0 0 0 0 0 
0 0 0 0 0 0 0 0 0 
0 0 0 0 0 0 0 0 0 
0 0 0 0 0 0 0 0 0 
0 0 0 0 0 0 0 0 0 
0 0 0 0 0 0 0 0 0 
0 0 0 0 0 0 0 0 0 
0 0 0 0 0 0 0 0 0 
0 0 0 0 0 0 0 0 0 
0 0 0 0 0 0 0 0 0 
0 0 0 0 0 0 0 0 0 
0 0 0 0 0 0 0 0 0 
0 0 0 0 0 0 0 0 0 
0 0 0 0 0 0 0 0 0 
0 0 0 0 0 0 0 0 0 
0 0 0 0 0 0 0 0 0 
0 0 0 0 0 0 0 0 0 
0 0 0 0 0 0 0 0 0 
0 0 0 0 0 0 0 0 0 
0 0 0 0 0 0 0 0 0 
0 0 0 0 0 0 0 0 0 
0 0 0 0 0 0 0 0 0 
0 0 0 0 0 0 0 0 0 
0 0 0 0 0 0 0 0 0 
0 0 0 0 0 0 0 0 0 
0 0 0 0 0 0 0 0 0 
0 0 0 0 0 0 0 0 0 
0 0 0 0 0 0 0 0 0 
0 0 0 0 0 0 0 0 0 
0 0 0 0 0 0 0 0 0 
0 0 0 0 0 0 0 0 0 
0 0 0 0 0 0 0 0 0 
0 0 0 0 0 0 0 0 0 
0 0 0 0 0 0 0 0 0 
0 0 0 0 0 0 0 0 0 
0 0 0 0 0 0 0 0 0 
0 0 0 0 0 0 0 0 0 
0 0 0 0 0 0 0 0 0 
0 0 0 0 0 0 0 0 0 
0 0 0 0 0 0 0 0 0 
0 0 0 0 0 0 0 0 0 
0 0 0 0 0 0 0 0 0 
0 0 0 0 0 0 0 0 0 
0 0 0 
v 3 1543 double
0.282211 -0.432017 -0.151404 0.866954 4.94741 0.386928 -0.0243725 -0.406218 0.00226004 