# vtk DataFile Version 4.0
Generated by LIGGGHTS
ASCII
DATASET POLYDATA
POINTS 538 float
0.0101749 0.00455297 0.0116574 0.0041198 0.00438075 0.0108755 0.00639423 0.00213943 0.0121393 
0.00310473 0.00662196 0.0116573 0.000677975 0.00743721 0.010678 0.00686954 0.00651829 0.0121393 
0.00216296 0.00344743 0.0106779 0.00422131 0.000770784 0.0107705 0.000770482 0.0059947 0.0107704 
0.00219956 0.00145878 0.0114587 0.00565991 0.00443407 0.010678 0.00389944 0.00275265 0.0107705 
0.00794469 0.00418635 0.0107704 0.000770464 0.00302523 0.0107704 0.000770466 0.00077048 0.0130251 
0.00118293 0.00450997 0.0107704 0.00261787 0.000994467 0.0138311 0.000875495 0.00312958 0.0124097 
0.00269185 0.00460424 0.0105965 0.00251238 0.0040907 0.0121815 0.00439924 0.00457119 0.0130317 
0.00830842 0.00414686 0.0133208 0.000994425 0.00660635 0.0132632 0.00348119 0.00266034 0.0131711 
0.00986144 0.00145883 0.0114587 0.000770488 0.00519507 0.0120877 0.0102076 0.00754326 0.0125111 
0.00224623 0.00526232 0.0136144 0.00879609 0.000875475 0.0134521 0.0114747 0.000994482 0.0132477 
0.000770496 0.00442353 0.0134216 0.00958169 0.00688804 0.0108754 0.0113836 0.00681365 0.0137686 
0.0120216 0.0057207 0.0127162 0.0120383 0.00583294 0.0107705 0.0125931 0.00128395 0.0112839 
0.0152023 0.00617815 0.01113 0.0224693 0.00366656 0.0114587 0.0165639 0.004001 0.0114588 
0.0192548 0.00450255 0.0112839 0.0228699 0.00113006 0.01113 0.014515 0.000770452 0.0107704 
0.0160364 0.00194731 0.0107704 0.0208871 0.000875489 0.0108754 0.0215279 0.00556606 0.010678 
0.0167279 0.000677954 0.010678 0.0186082 0.00165744 0.0116574 0.0228699 0.00784177 0.01113 
0.0168411 0.00757774 0.0122175 0.0175428 0.00603832 0.0108754 0.022672 0.00630092 0.0127716 
0.0134547 0.00407146 0.0116574 0.0198546 0.00717324 0.0114587 0.0230055 0.00192106 0.0130971 
0.0231245 0.00582979 0.0108754 0.0230055 0.00443272 0.0137268 0.0210097 0.00530633 0.0122522 
0.0150616 0.00163558 0.0127509 0.0214575 0.000875482 0.0125309 0.0129688 0.00805526 0.011883 
0.0200643 0.000994483 0.0137724 0.00901354 0.00904641 0.0112839 0.00463382 0.012162 0.0112839 
0.00791395 0.0142207 0.0121393 0.00634538 0.0088694 0.0106779 0.00424089 0.0150531 0.0116574 
0.0111436 0.0108224 0.0114587 0.0044375 0.00943185 0.0114587 0.00113002 0.0118102 0.01113 
0.00146443 0.00926415 0.0114588 0.00834573 0.0118231 0.010678 0.000770472 0.0136414 0.0107704 
0.00192564 0.0157194 0.0108754 0.00968667 0.0123629 0.0107704 0.00113029 0.0146253 0.0123561 
0.00688603 0.0106554 0.0112839 0.0102538 0.00934004 0.0130271 0.000677983 0.0128819 0.0125142 
0.00312681 0.0109178 0.0129054 0.00883128 0.0110164 0.0129209 0.0115159 0.0132024 0.0109944 
0.00261457 0.012922 0.0124214 0.00606021 0.0118576 0.0130343 0.00308543 0.0172556 0.0131351 
0.0107107 0.0079384 0.010678 0.00450744 0.0130523 0.0133774 0.0107184 0.0150244 0.0109944 
0.000525075 0.0156015 0.010525 0.000770476 0.0161734 0.0133984 0.0113108 0.0141982 0.0125638 
0.018325 0.010227 0.0125113 0.0155401 0.00899306 0.0109944 0.0162621 0.00972892 0.0126954 
0.0173381 0.015416 0.0112839 0.0142058 0.0113651 0.0116574 0.0205399 0.0107012 0.0109944 
0.0153025 0.0163845 0.0108754 0.0182683 0.00919261 0.01113 0.0219418 0.0126602 0.0114587 
0.0189023 0.0108243 0.0106779 0.0212296 0.0089672 0.0108754 0.0169194 0.0110061 0.01113 
0.0228693 0.010163 0.01113 0.0204384 0.0156598 0.011883 0.0159662 0.0144861 0.0126682 
0.0187495 0.0128074 0.0114587 0.0162155 0.0132235 0.01113 0.0230055 0.0139625 0.0132451 
0.0125056 0.0104181 0.0134588 0.0142653 0.0157493 0.0137232 0.0202238 0.0111797 0.0133796 
0.0231244 0.0145867 0.0108755 0.014965 0.013176 0.0132574 0.0232295 0.0154276 0.0122868 
0.014566 0.00964119 0.0134779 0.0136483 0.0146328 0.0116574 0.0230056 0.0166084 0.0109944 
0.00126741 0.0172829 0.0122888 0.00630957 0.0166573 0.0109944 0.0100767 0.0168336 0.0133405 
0.000770444 0.0168871 0.0107704 0.0062912 0.0239267 0.0114587 0.00307938 0.019748 0.0109944 
0.00829297 0.024419 0.010678 0.00128397 0.0213182 0.0112839 0.00696056 0.0213054 0.0108754 
0.00408258 0.0223098 0.0112839 0.00113007 0.018914 0.01113 0.00241968 0.0173992 0.0108755 
0.00529005 0.0202252 0.01113 0.0100017 0.020089 0.0107705 0.0104353 0.0185046 0.0108755 
0.00281422 0.0230583 0.0133874 0.00899996 0.0166015 0.0107705 0.000770483 0.0232401 0.0107704 
0.00604729 0.0216998 0.0124588 0.00303166 0.0208309 0.0126621 0.0078864 0.0188944 0.011883 
0.00446432 0.0179621 0.0112839 0.00928827 0.0223901 0.011883 0.00472129 0.0194657 0.0133497 
0.000994381 0.0239685 0.0123623 0.00583564 0.016898 0.0126774 0.00445313 0.0217184 0.0132161 
0.0046031 0.0235478 0.0127141 0.00960762 0.0246152 0.0131103 0.00805585 0.0246172 0.0126331 
0.0110401 0.0244929 0.0109944 0.00290254 0.0245905 0.0112839 0.0114518 0.024135 0.0130477 
0.0118512 0.0229175 0.010678 0.0008755 0.0252157 0.0108755 0.0118869 0.0169588 0.0112839 
0.0158767 0.0167436 0.0129259 0.0122398 0.0186259 0.0124315 0.0132962 0.0168045 0.0129127 
0.0170821 0.0178157 0.01113 0.0136597 0.0224585 0.0109944 0.0149846 0.0240143 0.0109944 
0.023123 0.0227736 0.0108755 0.0194268 0.0187474 0.0112839 0.0120952 0.0206266 0.0114587 
0.0154176 0.0228355 0.012708 0.0181836 0.0218592 0.0107703 0.0169735 0.0232798 0.01113 
0.0186555 0.0170483 0.0106779 0.0233353 0.0213431 0.0105965 0.0223249 0.0190842 0.0116574 
0.0142298 0.018374 0.0114588 0.0158036 0.0214657 0.0107705 0.016088 0.0193951 0.0107703 
0.0205743 0.0221549 0.011883 0.0145563 0.0209745 0.0121524 0.0231245 0.0169822 0.0128227 
0.0140658 0.0203562 0.0106779 0.0173018 0.020486 0.0128626 0.0134117 0.0221981 0.0127887 
0.017525 0.0251952 0.0128884 0.0181595 0.0233519 0.0128912 0.0231246 0.0213244 0.0125277 
0.0230056 0.0231018 0.0130966 0.00934938 0.0264254 0.0116574 0.00946327 0.0286903 0.0107704 
0.00747432 0.0286608 0.0112839 0.00863 0.0322383 0.01113 0.0013052 0.0320451 0.0112839 
0.00335835 0.0271176 0.0112839 0.000994458 0.0270782 0.0109944 0.00535424 0.0286994 0.0108754 
0.00608637 0.0312272 0.0116574 0.00588252 0.0266458 0.0112839 0.0106715 0.0312676 0.01113 
0.00886374 0.0302627 0.0108754 0.00165738 0.0293004 0.0122809 0.00449529 0.0254692 0.0130964 
0.00390417 0.0298741 0.0109944 0.00490855 0.0282683 0.0127827 0.00155883 0.0259842 0.012726 
0.00331369 0.0312129 0.0121587 0.00711329 0.0261289 0.0132952 0.00740865 0.0255721 0.0106779 
0.000770471 0.0274713 0.0136087 0.0021448 0.0335909 0.0117057 0.00347792 0.0326669 0.0109944 
0.0092896 0.0293135 0.0122839 0.000596477 0.0312158 0.0128156 0.0124092 0.0313367 0.0128559 
0.0117228 0.0287397 0.0116574 0.00758541 0.0334092 0.0122024 0.00703107 0.0332803 0.0107704 
0.0116091 0.0264665 0.0107704 0.000875469 0.0335922 0.0127278 0.0189452 0.0262643 0.0125685 
0.0121313 0.0307506 0.010525 0.0223267 0.0252232 0.0116574 0.0130237 0.0243473 0.0109944 
0.0166137 0.025511 0.01113 0.012747 0.0260879 0.0124385 0.020183 0.0260611 0.0120533 
0.015173 0.0250864 0.0128189 0.0189099 0.0247819 0.0112839 0.0145036 0.0259447 0.0109944 
0.0157877 0.0274636 0.0109944 0.0180491 0.0274459 0.0112839 0.0144365 0.0290974 0.01113 
0.0130421 0.0324879 0.0109944 0.0225412 0.031413 0.0114587 0.0197268 0.026608 0.010678 
0.0152533 0.0315319 0.0114587 0.0196265 0.0315427 0.0114587 0.0234027 0.026917 0.0105965 
0.0165188 0.0291775 0.012015 0.0135551 0.0274164 0.0107704 0.0184608 0.0293131 0.0120356 
0.0172824 0.0317601 0.010678 0.0232799 0.0281834 0.010678 0.0209788 0.0284894 0.011883 
0.0135028 0.0305783 0.010678 0.0177696 0.030254 0.0108754 0.0174409 0.0311306 0.0124941 
0.0143866 0.0274443 0.0120675 0.0198454 0.0334056 0.0130805 0.0198205 0.0336564 0.0107704 
0.023322 0.0331106 0.0124954 0.0232296 0.0272749 0.0125904 0.000994482 0.0342836 0.0109944 
0.00087545 0.0361459 0.0108754 0.00274498 0.0342568 0.0107704 0.000875439 0.0378967 0.0108754 
0.00603642 0.0354811 0.010678 0.0114753 0.0406946 0.0121393 0.00785432 0.0349551 0.01113 
0.0069263 0.0375301 0.0116573 0.00388666 0.0362074 0.0116574 0.00679177 0.0408423 0.0116573 
0.00937187 0.0365872 0.0109944 0.00394676 0.0393168 0.0114587 0.00942115 0.0386146 0.0109944 
0.00128395 0.0399774 0.0112839 0.00524858 0.033833 0.01113 0.00129205 0.0356997 0.0129467 
0.0104965 0.0342404 0.0116574 0.00489728 0.038039 0.0134998 0.00480854 0.0405148 0.0135886 
0.00197765 0.0380344 0.0125452 0.00912108 0.0401255 0.0105965 0.00866233 0.0392594 0.0129862 
0.00621473 0.035176 0.0122637 0.00910916 0.0413981 0.010678 0.0129032 0.0343489 0.0108754 
0.00259428 0.0407034 0.0131768 0.0174415 0.0340355 0.011883 0.014709 0.0338785 0.0109944 
0.0212252 0.0334518 0.0118192 0.0138663 0.039148 0.0131298 0.0180655 0.0367004 0.0109944 
0.0230056 0.0337769 0.0109944 0.0128304 0.0369158 0.011883 0.0157194 0.0377192 0.0109944 
0.0139961 0.0411839 0.0107704 0.0196818 0.0389794 0.011883 0.0203076 0.0357201 0.0114587 
0.0232294 0.0402271 0.0107705 0.0153242 0.0357699 0.0109944 0.0173686 0.0383065 0.0107704 
0.022716 0.038297 0.0112839 0.0228699 0.0358928 0.01113 0.0178474 0.0408082 0.0108754 
0.0223915 0.0402409 0.0129302 0.0144218 0.0393865 0.0112175 0.0162691 0.0393864 0.0107704 
0.0158742 0.0412107 0.01113 0.017077 0.0398548 0.0121258 0.0154831 0.0367524 0.0122357 
0.0143546 0.0411177 0.0122676 0.00580491 0.0491853 0.0120575 0.0033686 0.0499674 0.0133845 
0.00771137 0.0426279 0.0132006 0.00376357 0.0456581 0.012307 0.00869192 0.0484196 0.0125268 
0.00589207 0.0476671 0.0127535 0.00936377 0.0466143 0.0121909 0.00468578 0.0435358 0.0128193 
0.00669228 0.0435937 0.0120805 0.00272095 0.0462107 0.0109944 0.0107193 0.0479748 0.0114587 
0.00141504 0.0454923 0.0123114 0.000875475 0.0465616 0.0108754 0.00130807 0.0480746 0.0123541 
0.00370077 0.0444798 0.0109944 0.000770424 0.0449225 0.0107704 0.00707327 0.0494263 0.0109944 
0.00170464 0.0428645 0.0116574 0.0112505 0.0447027 0.011883 0.00846993 0.0455864 0.01113 
0.00590199 0.0455834 0.0114587 0.00795368 0.0476428 0.0109944 0.00388923 0.0483174 0.0114587 
0.00609746 0.0478352 0.0108754 0.00853988 0.0431782 0.0112839 0.00560314 0.0433278 0.0108754 
[...]
POINT_DATA 538
FIELD FieldData 7
id 1 538 int
1 2 3 4 5 6 7 8 9 
10 11 12 13 14 15 16 17 18 
19 20 21 22 24 25 26 29 31 
33 34 35 38 39 45 55 56 57 
58 59 60 61 62 63 64 65 66 
67 68 69 70 71 72 73 76 77 
80 81 82 85 90 95 96 106 107 
108 109 110 111 112 113 114 115 116 
117 118 119 120 121 122 124 126 128 
129 131 132 133 134 141 144 155 162 
163 164 165 166 167 168 169 170 171 
172 173 174 175 176 177 178 179 181 
184 187 190 191 192 194 197 198 200 
219 220 222 223 224 225 226 227 228 
229 230 231 232 233 234 235 236 237 
238 239 240 241 242 244 245 248 250 
251 254 262 264 265 270 273 275 276 
279 283 284 285 286 287 288 289 290 
291 292 293 294 295 296 297 298 299 
300 301 302 303 305 306 308 309 310 
317 330 331 332 333 334 335 336 337 
338 339 340 341 342 343 344 346 347 
348 349 351 353 357 359 362 366 368 
375 376 379 380 382 385 386 387 388 
389 390 391 392 393 394 395 396 397 
398 399 400 401 402 403 404 405 406 
408 409 410 411 413 415 416 417 418 
419 421 435 436 437 439 440 441 442 
443 444 445 446 447 448 449 450 451 
453 455 456 457 458 459 460 466 478 
479 497 498 499 500 501 502 503 504 
505 506 507 508 509 510 511 513 514 
515 516 517 522 523 524 535 486 487 
488 489 490 491 492 493 494 495 496 
512 518 519 520 521 525 526 527 528 
529 530 531 532 533 534 536 537 538 
438 452 454 461 462 463 464 465 467 
468 469 470 471 472 473 474 475 476 
477 480 481 482 483 484 485 355 356 
358 360 361 363 364 365 367 369 370 
371 372 373 374 377 378 381 383 384 
407 412 414 420 422 423 424 425 426 
427 428 429 430 431 432 433 434 266 
267 268 269 271 272 274 277 278 280 
281 282 304 307 311 312 313 314 315 
316 318 319 320 321 322 323 324 325 
326 327 328 329 345 350 352 354 207 
208 209 210 211 212 213 214 215 216 
217 218 221 243 246 247 249 252 253 
255 256 257 258 259 260 261 263 142 
143 145 146 147 148 149 150 151 152 
153 154 156 157 158 159 160 161 180 
182 183 185 186 188 189 193 195 196 
199 201 202 203 204 205 206 86 87 
88 89 91 92 93 94 97 98 99 
100 101 102 103 104 105 123 125 127 
130 135 136 137 138 139 140 23 27 
28 30 32 36 37 40 41 42 43 
44 46 47 48 49 50 51 52 53 
54 74 75 78 79 83 84 
type 1 538 int
1 1 1 1 1 1 1 1 1 
1 1 1 1 1 1 1 1 1 
1 1 1 1 1 1 1 1 1 
1 1 1 1 1 1 1 1 1 
1 1 1 1 1 1 1 1 1 
1 1 1 1 1 1 1 1 1 
1 1 1 1 1 1 1 1 1 
1 1 1 1 1 1 1 1 1 
1 1 1 1 1 1 1 1 1 
1 1 1 1 1 1 1 1 1 
1 1 1 1 1 1 1 1 1 
1 1 1 1 1 1 1 1 1 
1 1 1 1 1 1 1 1 1 
1 1 1 1 1 1 1 1 1 
1 1 1 1 1 1 1 1 1 
1 1 1 1 1 1 1 1 1 
1 1 1 1 1 1 1 1 1 
1 1 1 1 1 1 1 1 1 
1 1 1 1 1 1 1 1 1 
1 1 1 1 1 1 1 1 1 
1 1 1 1 1 1 1 1 1 
1 1 1 1 1 1 1 1 1 
1 1 1 1 1 1 1 1 1 
1 1 1 1 1 1 1 1 1 
1 1 1 1 1 1 1 1 1 
1 1 1 1 1 1 1 1 1 
1 1 1 1 1 1 1 1 1 
1 1 1 1 1 1 1 1 1 
1 1 1 1 1 1 1 1 1 
1 1 1 1 1 1 1 1 1 
1 1 1 1 1 1 1 1 1 
1 1 1 1 1 1 1 1 1 
1 1 1 1 1 1 1 1 1 
1 1 1 1 1 1 1 1 1 
1 1 1 1 1 1 1 1 1 
1 1 1 1 1 1 1 1 1 
1 1 1 1 1 1 1 1 1 
1 1 1 1 1 1 1 1 1 
1 1 1 1 1 1 1 1 1 
1 1 1 1 1 1 1 1 1 
1 1 1 1 1 1 1 1 1 
1 1 1 1 1 1 1 1 1 
1 1 1 1 1 1 1 1 1 
1 1 1 1 1 1 1 1 1 
1 1 1 1 1 1 1 1 1 
1 1 1 1 1 1 1 1 1 
1 1 1 1 1 1 1 1 1 
1 1 1 1 1 1 1 1 1 
1 1 1 1 1 1 1 1 1 
1 1 1 1 1 1 1 1 1 
1 1 1 1 1 1 1 1 1 
1 1 1 1 1 1 1 1 1 
1 1 1 1 1 1 1 1 1 
1 1 1 1 1 1 1 1 1 
1 1 1 1 1 1 1 1 1 
1 1 1 1 1 1 1 1 1 
1 1 1 1 1 1 1 1 1 
1 1 1 1 1 1 1 1 1 
1 1 1 1 1 1 1 1 1 
1 1 1 1 1 1 1 
i 3 538 int
0 0 0 0 0 0 0 0 0 
0 0 0 0 0 0 0 0 0 
0 0 0 0 0 0 0 0 0 
0 0 0 0 0 0 0 0 0 
0 0 0 0 0 0 0 0 0 
0 0 0 0 0 0 0 0 0 
0 0 0 0 0 0 0 0 0 
0 0 0 0 0 0 0 0 0 
0 0 0 0 0 0 0 0 0 
0 0 0 0 0 0 0 0 0 
0 0 0 0 0 0 0 0 0 
0 0 0 0 0 0 0 0 0 
0 0 0 0 0 0 0 0 0 
0 0 0 0 0 0 0 0 0 
0 0 0 0 0 0 0 0 0 
0 0 0 0 0 0 0 0 0 
0 0 0 0 0 0 0 0 0 
0 0 0 0 0 0 0 0 0 
0 0 0 0 0 0 0 0 0 
0 0 0 0 0 0 0 0 0 
0 0 0 0 0 0 0 0 0 
0 0 0 0 0 0 0 0 0 
0 0 0 0 0 0 0 0 0 
0 0 0 0 0 0 0 0 0 
0 0 0 0 0 0 0 0 0 
0 0 0 0 0 0 0 0 0 
0 0 0 0 0 0 0 0 0 
0 0 0 0 0 0 0 0 0 
0 0 0 0 0 0 0 0 0 
0 0 0 0 0 0 0 0 0 
0 0 0 0 0 0 0 0 0 
0 0 0 0 0 0 0 0 0 
0 0 0 0 0 0 0 0 0 
0 0 0 0 0 0 0 0 0 
0 0 0 0 0 0 0 0 0 
0 0 0 0 0 0 0 0 0 
0 0 0 0 0 0 0 0 0 
0 0 0 0 0 0 0 0 0 
0 0 0 0 0 0 0 0 0 
0 0 0 0 0 0 0 0 0 
0 0 0 0 0 0 0 0 0 
0 0 0 0 0 0 0 0 0 
0 0 0 0 0 0 0 0 0 
0 0 0 0 0 0 0 0 0 
0 0 0 0 0 0 0 0 0 
0 0 0 0 0 0 0 0 0 
0 0 0 0 0 0 0 0 0 
0 0 0 0 0 0 0 0 0 
0 0 0 0 0 0 0 0 0 
0 0 0 0 0 0 0 0 0 
0 0 0 0 0 0 0 0 0 
0 0 0 0 0 0 0 0 0 
0 0 0 0 0 0 0 0 0 
0 0 0 0 0 0 0 0 0 
0 0 0 0 0 0 0 0 0 
0 0 0 0 0 0 0 0 0 
0 0 0 0 0 0 0 0 0 
0 0 0 0 0 0 0 0 0 
0 0 0 0 0 0 0 0 0 
0 0 0 0 0 0 0 0 0 
0 0 0 0 0 0 0 0 0 
0 0 0 0 0 0 0 0 0 
0 0 0 0 0 0 0 0 0 
0 0 0 0 0 0 0 0 0 
0 0 0 0 0 0 0 0 0 
0 0 0 0 0 0 0 0 0 
0 0 0 0 0 0 0 0 0 
0 0 0 0 0 0 0 0 0 
0 0 0 0 0 0 0 0 0 
0 0 0 0 0 0 0 0 0 
0 0 0 0 0 0 0 0 0 
0 0 0 0 0 0 0 0 0 
0 0 0 0 0 0 0 0 0 
0 0 0 0 0 0 0 0 0 
0 0 0 0 0 0 0 0 0 
0 0 0 0 0 0 0 0 0 
0 0 0 0 0 0 0 0 0 
0 0 0 0 0 0 0 0 0 
0 0 0 0 0 0 0 0 0 
0 0 0 0 0 0 0 0 0 
0 0 0 0 0 0 0 0 0 
0 0 0 0 0 0 0 0 0 
0 0 0 0 0 0 0 0 0 
0 0 0 0 0 0 0 0 0 
0 0 0 0 0 0 0 0 0 
0 0 0 0 0 0 0 0 0 
0 0 0 0 0 0 0 0 0 
0 0 0 0 0 0 0 0 0 
0 0 0 0 0 0 0 0 0 
0 0 0 0 0 0 0 0 0 
0 0 0 0 0 0 0 0 0 
0 0 0 0 0 0 0 0 0 
0 0 0 0 0 0 0 0 0 
0 0 0 0 0 0 0 0 0 
0 0 0 0 0 0 0 0 0 
0 0 0 0 0 0 0 0 0 
0 0 0 0 0 0 0 0 0 
0 0 0 0 0 0 0 0 0 
0 0 0 0 0 0 0 0 0 
0 0 0 0 0 0 0 0 0 
0 0 0 0 0 0 0 0 0 
0 0 0 0 0 0 0 0 0 
0 0 0 0 0 0 0 0 0 
0 0 0 0 0 0 0 0 0 
0 0 0 0 0 0 0 0 0 
0 0 0 0 0 0 0 0 0 
0 0 0 0 0 0 0 0 0 
0 0 0 0 0 0 0 0 0 
0 0 0 0 0 0 0 0 0 
0 0 0 0 0 0 0 0 0 
0 0 0 0 0 0 0 0 0 
0 0 0 0 0 0 0 0 0 
0 0 0 0 0 0 0 0 0 
0 0 0 0 0 0 0 0 0 
0 0 0 0 0 0 0 0 0 
0 0 0 0 0 0 0 0 0 
0 0 0 0 0 0 0 0 0 
0 0 0 0 0 0 0 0 0 
0 0 0 0 0 0 0 0 0 
0 0 0 0 0 0 0 0 0 
0 0 0 0 0 0 0 0 0 
0 0 0 0 0 0 0 0 0 
0 0 0 0 0 0 0 0 0 
0 0 0 0 0 0 0 0 0 
0 0 0 0 0 0 0 0 0 
0 0 0 0 0 0 0 0 0 
0 0 0 0 0 0 0 0 0 
0 0 0 0 0 0 0 0 0 
0 0 0 0 0 0 0 0 0 
0 0 0 0 0 0 0 0 0 
0 0 0 0 0 0 0 0 0 
0 0 0 0 0 0 0 0 0 
0 0 0 0 0 0 0 0 0 
0 0 0 0 0 0 0 0 0 
0 0 0 0 0 0 0 0 0 
0 0 0 0 0 0 0 0 0 
0 0 0 0 0 0 0 0 0 
0 0 0 0 0 0 0 0 0 
0 0 0 0 0 0 0 0 0 
0 0 0 0 0 0 0 0 0 
0 0 0 0 0 0 0 0 0 
0 0 0 0 0 0 0 0 0 
0 0 0 0 0 0 0 0 0 
0 0 0 0 0 0 0 0 0 
0 0 0 0 0 0 0 0 0 
0 0 0 0 0 0 0 0 0 
0 0 0 0 0 0 0 0 0 
0 0 0 0 0 0 0 0 0 
0 0 0 0 0 0 0 0 0 
0 0 0 0 0 0 0 0 0 
0 0 0 0 0 0 0 0 0 
0 0 0 0 0 0 0 0 0 
0 0 0 0 0 0 0 0 0 
0 0 0 0 0 0 0 0 0 
0 0 0 0 0 0 0 0 0 
0 0 0 0 0 0 0 0 0 
0 0 0 0 0 0 0 0 0 
0 0 0 0 0 0 0 0 0 
0 0 0 0 0 0 0 0 0 
0 0 0 0 0 0 0 0 0 
0 0 0 0 0 0 0 0 0 
0 0 0 0 0 0 0 0 0 
0 0 0 0 0 0 0 0 0 
0 0 0 0 0 0 0 0 0 
0 0 0 0 0 0 0 0 0 
0 0 0 0 0 0 0 0 0 
0 0 0 0 0 0 0 0 0 
0 0 0 0 0 0 0 0 0 
0 0 0 0 0 0 0 0 0 
0 0 0 0 0 0 0 0 0 
0 0 0 0 0 0 0 0 0 
0 0 0 0 0 0 0 0 0 
0 0 0 0 0 0 0 0 0 
0 0 0 0 0 0 0 0 0 
0 0 0 0 0 0 0 0 0 
0 0 0 0 0 0 0 0 0 
0 0 0 0 0 0 0 0 0 
0 0 0 0 0 0 0 0 0 
0 0 0 0 0 0 0 0 0 
0 0 0 
v 3 538 double
0.00215433 -0.000214175 1.32469e-06 -0.00162228 -0.000780147 -1.58389e-11 9.50872e-05 6.0203e-05 -2.31562e-05 
-0.000146654 -0.000566833 -4.45591e-06 -4.43485e-06 -1.24132e-05 -1.85302e-05 -0.000291046 -0.00201755 -2.9967e-05 
-7.77116e-05 1.90206e-05 5.67032e-06 0.00155446 9.65823e-05 -3.19914e-12 8.40153e-06 2.11384e-05 6.39116e-06 
2.23232e-05 5.63524e-06 1.57233e-05 -0.00130364 -0.00366671 1.62059e-11 -0.00123352 -0.000225104 1.2463e-11 
0.00211397 -0.00117485 0.00013949 1.09209e-05 8.12048e-06 3.41113e-06 6.02655e-06 1.926e-06 1.45015e-05 
-7.62152e-05 2.02064e-05 -1.40791e-05 -0.00207497 -0.000110275 0.000418096 6.32939e-06 5.57628e-06 1.51601e-05 
-0.00139041 0.000834711 1.0183e-11 -0.00122108 -0.000254436 0.000398003 -0.001015 -0.000921183 0.000318868 
0.00173811 -0.00109157 -0.000631548 -7.11939e-05 0.0544093 0.000473209 0.000164618 -0.00134 0.000906146 
3.75594e-05 -4.80292e-06 -2.21188e-05 -1.88141e-06 8.47998e-06 1.33287e-06 -0.0155345 -0.0221597 0.0138281 
-0.0459382 0.0077003 -0.0143878 4.0714e-05 5.59022e-06 -2.55131e-05 -4.87415e-05 -5.99515e-06 6.62743e-06 
-1.12525e-05 1.74425e-05 -1.24156e-06 -0.000567396 -0.00102287 -0.000134974 -0.00986593 -0.0123019 0.0141587 
-0.000725726 -0.020542 0.027912 -0.0282961 -0.0216503 9.16852e-05 4.3581e-05 7.70694e-05 3.69776e-05 
0.00106871 -0.000352521 -0.000320426 0.00303019 0.00039122 -2.5871e-05 0.0026528 0.000400922 3.52135e-05 
0.003046 -0.000335207 3.44354e-05 7.07236e-06 -1.21318e-05 -1.44311e-05 6.27581e-05 -4.7372e-05 -5.72322e-06 
0.00300247 0.000298679 9.86973e-05 0.00269708 4.30803e-05 4.96089e-05 -0.0201906 0.0172757 5.53839e-12 
0.00253048 2.77242e-05 7.08937e-06 0.00255709 1.29839e-05 -1.78764e-05 5.04322e-05 0.0124513 4.77302e-05 
0.140987 -0.0820424 -0.107599 0.25379 -0.121381 -0.000998435 -0.000399654 0.00989609 -0.00231315 
0.00217068 -0.000423511 4.56158e-06 -0.00188087 0.000338637 3.22455e-05 1.17284e-05 -0.000365517 0.000133789 
8.85865e-06 0.00129094 -3.11155e-05 7.51614e-07 0.0098652 -0.00248018 0.00412021 0.00279349 -0.00396649 
0.00196483 -0.000481276 -0.000392438 0.000794873 1.19979e-06 0.000759566 -0.0184518 -0.0230482 -0.000169084 
0.0010336 -1.20261e-05 0.0010275 0.0113436 -0.0114582 0.000375387 -0.0140682 -0.00192698 -0.000125525 
-0.0149637 -0.0217631 1.50323e-06 0.00728234 -0.00041007 -5.97166e-05 -0.0103874 -0.00102115 9.4709e-05 
-0.00429446 -0.0129196 -0.000540715 0.00634135 -0.00371694 -6.64157e-06 9.44508e-05 -0.000142661 -8.3614e-05 
0.000281082 -0.000203037 2.27793e-05 0.00844066 -0.0206322 -1.83156e-05 0.000190776 0.000247982 0.000280842 
-0.00126785 0.0296561 -0.000300503 0.00216971 -0.00590751 2.93006e-05 -0.000972518 0.0174457 -0.00974221 
0.00357531 0.000670271 -0.000188148 0.0115955 -0.0197936 0.00179107 -9.00352e-05 0.0170672 -0.0136136 
-0.318931 -0.117254 -0.178223 0.000523771 -0.0159428 0.00579865 -0.00659329 -0.0116228 0.000340574 
-0.014738 0.00631607 0.0116544 -0.0196962 -0.0174324 0.00152087 -0.0439788 -0.117048 -0.0836324 
-0.0200811 0.0211069 1.72726e-11 -0.0079617 -0.0010944 -0.00029063 -0.0168123 -0.0156773 -0.000112681 
0.000363341 -0.124285 1.63097e-11 6.84903e-05 -0.0100456 0.0315929 0.00982916 -0.00204217 -0.00330255 
0.209129 0.66861 -0.465369 0.0118577 -0.1029 0.00161498 0.117439 -0.102563 -0.0404067 
-0.000965357 0.011533 0.00015276 -0.00241856 -0.0277985 0.000442239 -0.0193907 -0.00206793 -3.11156e-05 
-0.0131798 -0.00959065 0.000142488 0.0686813 0.0547537 6.3554e-05 -0.0661103 0.0313588 3.53814e-05 
-0.012808 0.0867745 0.000166668 -0.00610221 0.00333109 -4.92157e-05 -0.000294229 0.00247205 -0.00110504 
-0.000235959 0.0300338 1.18553e-12 -0.00243285 0.0348947 3.28416e-05 -0.00179034 0.0469813 0.0234364 
-0.0809413 0.0819298 3.08663e-05 -0.0843425 0.0599051 -0.000195678 3.11077e-05 0.0067955 -0.0213297 
-0.0070972 -0.0210816 -0.000408363 -0.0116551 -0.0300631 0.00702949 -0.0567344 0.078897 -0.021263 
-0.000689008 -0.00621213 -7.11875e-08 0.0514211 -0.0196608 -0.0339611 -0.000196924 0.0118954 -0.0145027 
0.104849 -0.0790414 -0.068647 0.00366094 -0.0256425 -3.87719e-05 7.23295e-06 0.029028 0.000335013 
-0.0951551 0.0320926 0.0309239 0.00194021 -0.0115781 -0.000446146 -0.00365663 -0.0290826 -0.00423387 
1.56743e-05 0.0309514 2.98167e-05 0.0126645 -0.0347656 -3.29365e-06 0.00887212 -0.00246762 1.38547e-05 
-0.00408246 -0.0357448 8.88691e-05 -1.87564e-05 0.0187867 -2.34176e-05 0.0138887 -0.00535262 -5.7251e-05 
-0.00357031 -0.0121428 -4.9539e-05 2.3312e-05 0.0184253 8.63771e-05 0.00892928 0.0261948 -1.44938e-05 
0.0123172 -0.00303266 0.000189705 0.0212381 -0.0244098 0.000126951 -0.00651498 -0.0326612 3.6745e-05 
-0.0249307 -0.0356547 -0.00446911 -0.00423494 -0.0242151 5.75064e-12 0.000167722 0.019509 0.000583506 
0.0342516 -0.029557 0.0175385 -0.00855128 -0.0064432 0.00212189 0.00590277 -0.0159092 7.18829e-05 
0.00933295 -0.00216908 -4.63245e-05 0.0223311 -0.0234398 0.000141518 -0.000500105 0.00158105 -0.00152113 
-0.000235843 0.0201808 0.00114515 -0.0315888 0.0858436 -0.0239483 0.0193574 -0.0410307 -0.0133238 
0.0790955 -0.0622916 0.0134149 0.422153 -0.0252314 -0.100585 0.0166954 -0.0209259 -0.01445 
1.20765e-05 -0.00636335 -0.000601555 0.00721767 -0.0066225 -0.000184824 0.242706 -0.234068 -0.0893742 
0.0785793 -0.0147958 6.24955e-12 0.000146119 -0.0398685 1.31034e-07 0.0011247 -0.0265321 3.67613e-05 
-0.0219531 -0.0158859 0.00386506 -0.00488786 -0.0381185 0.018958 0.00687132 -0.0222814 -0.00466067 
-0.0375534 -0.00554029 -7.56048e-05 -0.00722241 -0.0330724 -9.43817e-06 0.000594374 -0.00566463 -0.000790883 
-0.000352052 -0.014517 3.70118e-12 0.00455414 -0.0450865 -5.78242e-05 0.00856328 -0.0462694 -1.81156e-05 
-0.0160603 -0.00465466 0.00413618 0.00914228 -0.0205824 0.000784819 -0.0115883 -0.0372326 -0.000650733 
-0.0459183 -0.0218729 -0.00027522 -0.00037675 -0.0147286 6.22669e-12 -0.00408813 0.0284719 -6.80831e-06 
-0.0104143 -0.00777126 -2.83069e-06 -0.204659 -0.094733 -1.28133e-12 -0.018726 0.00626186 -9.0621e-05 
0.00302997 0.0354484 1.09928e-05 0.016008 -0.0193683 0.00441979 -4.45624e-06 0.0304028 0.000227016 
0.0143722 -0.00582576 -0.000265726 0.0162242 -0.0297117 -0.00178665 -0.581941 0.33147 -1.24675 
-0.0333427 0.05626 0.00183293 -0.020203 -0.0151167 0.00342537 0.000144565 0.0273325 -0.000127772 
-0.000309215 0.0222699 0.0173767 0.0040999 -0.00390615 0.000179527 0.00476588 -0.00464609 7.16219e-05 
0.00464619 -0.00352693 5.60103e-05 0.0189959 -1.15877e-05 -4.83413e-05 0.00965516 0.00390263 1.21739e-05 
0.0310835 -0.0109631 -0.000108453 -2.29744e-06 -0.0409992 -1.01896e-05 0.00448307 -0.0291302 -0.000121079 
0.01773 0.00396081 -8.02681e-05 0.0289221 -0.0228748 -3.77599e-05 0.0257736 0.00699763 2.39794e-10 
0.0023281 -0.00190497 2.32021e-05 -0.000127344 -0.0142568 -0.0462085 0.0469404 -0.0593427 -0.00983802 
0.0238048 -0.005568 -0.000135799 -0.0590552 -0.0559059 -0.0211568 0.0396337 0.00662755 0.0172142 
-0.00255584 -0.00960507 -0.00947845 0.0131517 -0.0318424 0.00729812 0.0186422 -0.0382441 0.000343222 
0.000168728 0.00645641 -0.0172429 -0.00336468 0.00787654 0.0106968 0.0128883 -0.0049083 -0.000122595 
0.0224217 0.00441421 -0.0016596 -0.000196236 -0.0222092 -0.0184704 0.0349135 -0.00266943 -0.0188906 
0.00467632 -0.00373905 -8.31365e-05 0.0199596 0.00565256 -0.00532391 0.0069906 0.00879475 -0.000254105 
0.00388743 -0.0035241 -0.000118384 -0.00011645 0.00182541 -0.000606188 0.0615163 -0.0361902 0.0378756 
0.00692655 -0.0789447 -1.36135e-11 0.0240462 0.0187342 -1.83105e-06 -0.0019775 -0.0239383 -0.000399254 
-0.0666107 -0.0445173 0.000285492 0.00719444 -0.019315 -0.00610438 -0.000168316 -0.0078714 -0.0743556 
-0.0539595 -0.0276454 0.015925 -0.0525025 -0.000771428 0.000141994 0.0156204 -0.00284492 0.000949225 
0.019441 -0.00531056 -0.000614353 0.0208251 -0.108111 0.000142668 0.00415161 -0.0147048 -0.00155505 
0.0940756 -0.00430039 5.74641e-05 2.40796e-05 -0.00591417 -0.000107305 0.0708268 -0.0563497 -4.12753e-05 
0.0776298 -0.0408832 -0.000329551 0.00225384 0.0367443 -0.00019775 -0.000343212 0.0466056 -9.2029e-12 
0.0176292 0.00156387 -0.0119926 -0.00023936 -0.0116434 0.000187857 -0.0451828 -0.0734823 -0.0493111 
-0.043464 0.00816383 1.05165e-11 -0.0125445 0.0453309 -1.01072e-11 -0.0170379 0.00291103 -0.000213976 
0.0279425 0.00695461 0.000946465 0.00764468 0.027493 0.000687995 0.0474573 -0.057427 0.0555125 
0.01538 -0.0180465 -0.00945741 -0.00479213 0.0432197 -0.0132859 -0.0220119 -0.00676803 -4.36144e-05 
7.68026e-05 -0.00629758 0.000174182 7.30565e-05 0.031691 -0.00550267 -8.95851e-05 0.00238525 -3.29443e-05 
0.000213296 0.00235649 -0.000102709 0.000574849 -0.0100603 0.000413423 -5.73222e-06 0.00220851 -2.48114e-05 
0.00705835 0.0269248 -1.15296e-11 -0.00759354 0.00520351 -7.29173e-05 -0.00312423 0.0135147 1.51949e-05 
-0.0132751 0.0100061 -6.5101e-05 -0.00714318 -0.00438996 -1.89017e-05 0.012067 0.0111777 7.63616e-05 
0.0331412 0.020499 1.73007e-11 0.00611551 -0.00428603 -3.28792e-05 -0.0305204 0.0129856 -3.65279e-08 
9.77761e-05 0.0020497 0.000166169 0.00697344 0.00244985 0.000131036 -0.00798703 0.00308688 0.00165905 
-0.00170099 0.01914 -3.5374e-05 -0.0119755 -0.00769959 0.00618723 0.00994078 0.019105 -0.000579462 
0.000521624 0.00413733 -0.000466533 -0.0635534 0.00651717 -2.91928e-08 -0.00227649 -0.00343925 0.00292255 
-0.00358665 0.00827456 0.00027183 -0.0326308 0.00540023 1.47835e-11 0.000123887 -0.0110144 0.000327876 
0.00849003 -0.00217185 -0.0036438 -0.0178214 0.0186474 0.00012896 -0.0126396 -0.0610574 -2.95715e-05 
-0.00825739 -0.00790978 -0.0187866 0.18339 0.0754036 -0.351587 0.0842344 -0.00582112 -4.57949e-05 
0.000117978 -0.00706346 -5.1783e-05 -0.0520374 -0.0115632 -0.000199874 0.00348238 -0.0546709 5.7106e-05 
-0.0158103 0.0510759 0.000510797 -0.00420366 -0.0268664 -0.00025452 0.00133274 -0.012284 -1.50955e-06 
-3.41007e-05 -0.0269534 5.43101e-12 -0.0675947 -0.0416877 6.1617e-05 -2.02711e-05 -0.0429417 -0.000119991 
0.00086716 -0.00848457 0.000255829 0.000234683 -0.0078008 2.75205e-05 -0.00944882 -0.0250238 0.000197347 
-0.0121116 -0.0110493 0.000920198 -0.122664 -0.089929 -0.461335 -0.0114904 -0.0459908 -0.000238818 
-0.00721839 -0.0477725 -5.07011e-06 -0.0100616 -0.032961 -0.0059599 -0.00103908 -0.0525835 0.000436235 
-0.0102627 -0.0727729 -0.00620364 -0.0233862 -0.0804211 -0.0379038 -0.00121796 -0.0193284 -0.00657725 
-0.0750901 0.0753112 -0.0221387 0.464586 0.282098 -0.264149 0.0282107 -0.0173392 0.0106307 
0.0220838 -0.0419955 0.0399973 -0.0427781 0.071368 -0.0145541 -0.00980503 0.000429851 -0.00128083 
0.0146409 -0.0230527 -0.0114368 -0.0146847 0.0051816 -1.03605e-05 0.0277216 0.00891581 -3.15956e-05 
-0.00644535 -0.00498221 0.00256283 0.000434356 -0.00492101 -0.000160309 0.0255095 -0.0104504 -0.00238344 
-0.00156875 0.0124981 0.000152011 -0.00046834 -0.00434033 -0.000147312 -0.00443228 -0.013107 5.34703e-05 
0.0083043 0.000397565 0.000198031 0.0219716 0.00749981 3.88894e-06 0.0204078 0.00146354 -6.93547e-05 
0.0206958 -0.017067 -9.83593e-06 0.0289255 0.00339148 -3.70895e-05 0.0271017 -0.0180317 2.09686e-05 
0.0269117 -0.0179248 -6.07345e-05 0.0251381 0.00157603 2.93917e-05 -0.00523688 0.00598442 9.04454e-05 
-0.202066 0.134911 -0.085352 0.00597506 -0.00437642 -0.000205138 0.000113016 -0.0109834 -0.00729866 
-0.0856791 0.0301881 -0.0500232 0.00450863 -0.0219394 0.00929744 -0.00720875 -0.00275676 -0.0133119 
0.032768 -0.0339232 3.70118e-12 0.00703566 0.0224818 -5.46333e-05 -0.000224094 -0.0362388 0.000714196 
0.0270781 -0.0050373 0.00931087 0.025158 0.0187723 0.0305864 0.0397021 0.0452856 -8.6283e-05 
0.0327424 0.0396664 0.017253 0.0331648 0.0621647 -9.6174e-05 0.0170712 -0.0448966 5.30253e-05 
-0.00531876 -0.0275261 -0.000209042 0.0149623 -0.0486024 -0.000256902 0.0177942 6.92012e-05 0.000284044 
-0.0151079 -0.0257268 -2.85462e-12 0.0251482 0.00480381 -0.00024248 0.0500621 -0.00949416 -7.44721e-05 
-0.00034506 -0.0360455 -4.53988e-05 -0.000295148 -0.0402612 -1.18293e-11 0.0364025 0.0150993 -3.53327e-05 
0.0115157 -0.100249 -0.00147867 0.0110766 -0.0198366 -6.70192e-05 -0.00980477 -0.0338649 0.0139875 
-0.000766414 -0.0134447 0.00027833 -0.0274556 -0.0119117 -0.000102997 0.0317765 -0.0194252 0.000565887 
-0.0012902 -0.0117915 0.00445105 -0.0489687 -0.0400637 -0.0108123 -1.27166e-05 -0.0144326 -4.89845e-05 
-0.00116851 -0.0117601 0.00505235 -0.00242077 0.0190121 -0.0190584 0.000220961 -0.0140691 -5.82406e-07 
-0.014886 -0.00744565 -0.0281406 -9.99594e-05 -0.0137593 0.00427245 -0.0253451 0.00375901 0.000337647 
-0.00329522 -0.021577 0.00707888 0.0047285 -0.0113849 -0.0242752 0.00700286 -0.0112698 -0.0132116 
0.000436995 -0.0136105 -0.00104004 -0.00185899 -0.0133388 7.52454e-05 -0.00689883 -0.0138405 -6.10375e-05 
-0.0146583 -0.0190075 0.00588427 -0.0150926 0.018405 8.99867e-05 -0.0029005 -0.0144746 -7.02219e-05 
-0.00569866 -0.0108897 8.14801e-05 -0.0516087 0.0532162 1.54947e-11 -0.0040855 -0.0117534 -2.95761e-06 
0.00177477 -0.012407 -2.03058e-05 -0.0248321 0.00528545 0.000657589 7.35338e-05 0.000783802 1.13574e-11 
0.0203103 0.0295086 -3.31443e-07 -0.00319155 -0.0141158 0.00026787 0.0350565 -0.02242 -7.87415e-13 
-0.00346291 -0.0129548 -0.000474391 0.000383212 -0.0130051 0.000106818 -0.0264258 -0.0469525 -0.00377543 
0.000425516 -0.0095935 0.000145063 -0.00090735 -0.0705448 -0.0420931 0.00855066 -0.0345379 0.00235991 