# vtk DataFile Version 4.0
Generated by LIGGGHTS
ASCII
DATASET POLYDATA
POINTS 538 float
0.0101746 0.00455272 0.0116574 0.00411845 0.0043798 0.0108755 0.00639249 0.00213943 0.0121393 
0.00310619 0.0066217 0.0116573 0.000677963 0.00743014 0.0106779 0.006871 0.00651786 0.0121393 
0.00217411 0.00344759 0.0106779 0.00421038 0.00077049 0.0107705 0.000771313 0.00598769 0.0107704 
0.00220473 0.00145879 0.0114587 0.00565835 0.0044363 0.010678 0.00389181 0.00275263 0.0107705 
0.00794452 0.00418518 0.0107704 0.00077047 0.00302052 0.0107704 0.000770468 0.000770481 0.0130204 
0.00118747 0.00450399 0.0107705 0.00261972 0.000994464 0.0138316 0.000875482 0.00312545 0.0124096 
0.00269478 0.00463303 0.0105965 0.00251385 0.00409093 0.0121838 0.00440029 0.0045725 0.0130344 
0.00830825 0.00414541 0.0133208 0.000994435 0.00671884 0.0132585 0.00348079 0.00266235 0.0131738 
0.00985968 0.00145878 0.0114587 0.000770486 0.00518727 0.0120872 0.010212 0.00752566 0.0125169 
0.00216335 0.00527976 0.0135876 0.00879433 0.000875471 0.0134521 0.0114731 0.000994482 0.0132475 
0.000770466 0.00441847 0.0134227 0.00958305 0.0068882 0.0108754 0.0113932 0.00680293 0.0137736 
0.0120265 0.00571171 0.0127166 0.0120431 0.00582416 0.0107704 0.0125919 0.00128413 0.0112839 
0.0152144 0.00618376 0.0111299 0.0224801 0.00366822 0.0114587 0.0165751 0.00400617 0.0114588 
0.019395 0.00446811 0.0112839 0.0228699 0.00113004 0.01113 0.0145137 0.000770451 0.0107704 
0.0160499 0.00195192 0.0107704 0.0208921 0.000875483 0.0108754 0.0214976 0.00559198 0.010678 
0.0167328 0.00067793 0.010678 0.0186132 0.0016573 0.0116574 0.02287 0.00788494 0.01113 
0.0170085 0.00753642 0.0120123 0.0178228 0.00589096 0.0108754 0.0227694 0.0063458 0.012782 
0.0134656 0.00406791 0.0116574 0.0198441 0.00716813 0.0114588 0.0230055 0.00191984 0.0130976 
0.0231245 0.00583471 0.0108754 0.0230055 0.00445527 0.0137222 0.0210971 0.00536919 0.0122606 
0.0150737 0.00163188 0.0127488 0.0214588 0.000875483 0.0125321 0.01297 0.00804766 0.011883 
0.0200663 0.000994481 0.0137745 0.00902977 0.00903341 0.0112839 0.00461688 0.0121597 0.0112839 
0.00790044 0.0141973 0.0121393 0.00635633 0.00887102 0.0106779 0.00423252 0.0150519 0.0116573 
0.0111486 0.0108172 0.0114587 0.00444683 0.00942783 0.0114587 0.00113002 0.0118062 0.01113 
0.00145881 0.00925947 0.0114587 0.00835521 0.0118201 0.010678 0.000770482 0.0136375 0.0107704 
0.00192627 0.0157488 0.0108754 0.00969608 0.0123618 0.0107704 0.00113005 0.0146399 0.0123446 
0.00689175 0.0106586 0.0112839 0.0102734 0.00932417 0.0130252 0.000677984 0.0128962 0.0124999 
0.00286869 0.0108367 0.012701 0.00883758 0.0109996 0.0129245 0.0115217 0.0131969 0.0109944 
0.00260186 0.0129268 0.0124285 0.00603908 0.0118405 0.0130352 0.00290123 0.0171455 0.0129283 
0.0106806 0.00797006 0.010678 0.0044986 0.0130511 0.0133775 0.0107024 0.0150092 0.0109944 
0.000525621 0.0154151 0.010525 0.000770484 0.0161502 0.0134409 0.0113274 0.0142005 0.0125603 
0.018445 0.0109584 0.0119526 0.0155497 0.00897007 0.0109944 0.0164242 0.0096374 0.0126729 
0.0173316 0.0154461 0.0112838 0.0142117 0.0113556 0.0116573 0.020514 0.0107066 0.0109944 
0.0152955 0.0163936 0.0108754 0.0184062 0.00929571 0.01113 0.0218561 0.012707 0.0114587 
0.0188942 0.0109768 0.0106779 0.0212046 0.00897299 0.0108754 0.0169278 0.0110084 0.01113 
0.0228689 0.0102081 0.01113 0.0204292 0.0157213 0.0118832 0.0159604 0.0145872 0.0127138 
0.0186165 0.0129462 0.0114588 0.0160814 0.0133547 0.01113 0.0230055 0.0139731 0.0132178 
0.0125101 0.0104112 0.0134588 0.014253 0.0157393 0.0137298 0.0201215 0.0113028 0.013342 
0.0231232 0.0145796 0.0108755 0.0150462 0.0131775 0.0132066 0.0232295 0.0154457 0.0122712 
0.0146996 0.00957666 0.0133932 0.0136564 0.0146238 0.0116574 0.0230058 0.0166433 0.0109943 
0.000994956 0.017354 0.012341 0.00631208 0.0166443 0.0109944 0.0100693 0.0168054 0.0133399 
0.000770467 0.016916 0.0107704 0.00629414 0.0238997 0.0114587 0.00309185 0.0197512 0.0109944 
0.00827817 0.0243885 0.0106779 0.00128397 0.0213512 0.0112839 0.00697927 0.0212894 0.0108754 
0.0040762 0.0222955 0.0112839 0.00113006 0.018947 0.01113 0.00241662 0.0174297 0.0108754 
0.00530064 0.020221 0.0111299 0.0100169 0.0200741 0.0107704 0.0104286 0.018484 0.0108754 
0.00277913 0.0230119 0.0133811 0.00899361 0.0165651 0.0107705 0.000770482 0.023273 0.0107704 
0.00608017 0.0216744 0.0124692 0.00301737 0.0208261 0.0126662 0.0078914 0.0188797 0.011883 
0.00446975 0.0179598 0.0112839 0.00930612 0.0223759 0.011883 0.00471536 0.0194681 0.0133476 
0.000994376 0.0239976 0.0123641 0.00572517 0.0170252 0.0126148 0.00447347 0.0216689 0.0131997 
0.00466953 0.023435 0.0127667 0.0102789 0.024581 0.0127495 0.0080647 0.0246038 0.0126159 
0.0110417 0.0244922 0.0109944 0.00291259 0.0245845 0.0112839 0.0119088 0.0237786 0.0127978 
0.011969 0.0228953 0.010678 0.000875431 0.025173 0.0108754 0.0118798 0.0169381 0.0112839 
0.0158539 0.016749 0.012931 0.0122319 0.0185783 0.0124698 0.0132918 0.0167957 0.0129115 
0.0170346 0.01784 0.01113 0.0137465 0.022458 0.0109944 0.0149859 0.0240136 0.0109944 
0.0231225 0.0227518 0.0108755 0.0194367 0.0186867 0.0112839 0.012081 0.0205594 0.0114587 
0.0153961 0.0228058 0.0126933 0.0181918 0.0218479 0.0107703 0.0169655 0.0232545 0.01113 
0.0185847 0.0170265 0.0106779 0.0233347 0.021321 0.0105965 0.0223223 0.0191182 0.0116574 
0.0142085 0.0183763 0.0114588 0.0155487 0.0213503 0.0107705 0.0160508 0.0194257 0.0107703 
0.0205762 0.0221899 0.011883 0.0145624 0.0209229 0.0121704 0.0231245 0.0170171 0.0128226 
0.01406 0.0203598 0.0106779 0.0173296 0.0204527 0.0128562 0.0130103 0.0222446 0.0125842 
0.0175218 0.0253201 0.0128843 0.0181454 0.0233517 0.0128941 0.0231246 0.0213561 0.0125312 
0.0230055 0.023131 0.0131075 0.00935204 0.0264256 0.0116574 0.00946476 0.0286829 0.0107704 
0.00747572 0.0286598 0.0112839 0.00866047 0.0322127 0.01113 0.00131386 0.0320487 0.0112839 
0.00339169 0.0271073 0.0112839 0.000994463 0.0270356 0.0109944 0.00535528 0.0286677 0.0108754 
0.006104 0.0312348 0.0116574 0.00591329 0.0266219 0.0112839 0.0107232 0.0312889 0.01113 
0.00889303 0.030237 0.0108754 0.00165736 0.0292856 0.0122318 0.0045717 0.0253694 0.0130798 
0.00392865 0.0298707 0.0109944 0.00491526 0.02823 0.0127825 0.001607 0.0259963 0.0127432 
0.00330917 0.0312041 0.0121498 0.00712639 0.0261056 0.0133061 0.00742886 0.0255333 0.0106779 
0.000770461 0.0274784 0.0135892 0.00214185 0.0335982 0.0117151 0.0034887 0.0326634 0.0109944 
0.0093366 0.0293041 0.0122892 0.000596481 0.0311924 0.0127966 0.0124285 0.0313417 0.0128379 
0.0117241 0.0287413 0.0116574 0.0076289 0.0334065 0.0121897 0.0070397 0.0332921 0.0107704 
0.0116114 0.0264839 0.0107704 0.000875474 0.0335937 0.0127275 0.0189715 0.0262454 0.0125969 
0.0121417 0.0306322 0.010525 0.0223426 0.0252501 0.0116573 0.0130254 0.0243485 0.0109944 
0.0165627 0.0254784 0.01113 0.012739 0.0260855 0.0124408 0.0201804 0.0260585 0.0120118 
0.0151273 0.0250759 0.0128289 0.0188717 0.024791 0.0112839 0.0144935 0.0259406 0.0109944 
0.0157907 0.027453 0.0109944 0.0180494 0.0273746 0.0112839 0.0144393 0.0290867 0.01113 
0.0131156 0.0324908 0.0109944 0.0225412 0.031406 0.0114587 0.0198309 0.0265212 0.010678 
0.0153121 0.0315017 0.0114587 0.0196248 0.0315358 0.0114588 0.0234022 0.0269869 0.0105965 
0.0165193 0.0291708 0.0120104 0.0135577 0.0274201 0.0107704 0.0184167 0.0292778 0.0119958 
0.0173083 0.0317684 0.010678 0.0232611 0.0282514 0.010678 0.0209505 0.0284976 0.011883 
0.0135438 0.0305909 0.010678 0.0177457 0.0302797 0.0108754 0.0174719 0.0310798 0.0125432 
0.0143896 0.0274332 0.0120675 0.0198343 0.0333703 0.0130625 0.01981 0.033648 0.0107704 
0.023322 0.0331035 0.0124954 0.0232296 0.0273208 0.0125631 0.000994468 0.034286 0.0109944 
0.000875477 0.0361483 0.0108754 0.00274476 0.0342481 0.0107704 0.000875448 0.0378992 0.0108754 
0.00604701 0.0355215 0.010678 0.0114708 0.0406955 0.0121393 0.00786532 0.0349664 0.01113 
0.00691531 0.0375335 0.0116573 0.00387904 0.0362031 0.0116574 0.00680976 0.0408474 0.0116573 
0.00942158 0.036618 0.0109944 0.00395815 0.039312 0.0114587 0.009378 0.0386161 0.0109944 
0.00128397 0.0399799 0.0112839 0.00525466 0.0338367 0.01113 0.00128395 0.0357026 0.0129485 
0.0105034 0.0342365 0.0116574 0.00488855 0.0380291 0.0135059 0.00481877 0.0405199 0.0135806 
0.00198016 0.0380415 0.0125432 0.00900987 0.0401144 0.0105965 0.00866476 0.0392478 0.0129881 
0.00622588 0.0351736 0.0122665 0.00910444 0.0413848 0.010678 0.0129102 0.0343456 0.0108754 
0.00260297 0.0407 0.0131731 0.0174345 0.0340481 0.011883 0.0147046 0.0338329 0.0109944 
0.0212213 0.0334438 0.0118104 0.013909 0.0391503 0.013064 0.0181124 0.0366998 0.0109944 
0.0230056 0.0337698 0.0109944 0.0128118 0.0369117 0.011883 0.0157054 0.037694 0.0109944 
0.0139918 0.0411835 0.0107704 0.0196661 0.038961 0.011883 0.0203081 0.0357089 0.0114588 
0.0232294 0.0402128 0.0107705 0.0152884 0.0357467 0.0109944 0.0173557 0.0382785 0.0107704 
0.022716 0.0382898 0.0112839 0.02287 0.0358856 0.01113 0.0178448 0.0407909 0.0108754 
0.0223721 0.0402318 0.0129284 0.014396 0.0393616 0.01113 0.0162623 0.0393643 0.0107704 
0.0158822 0.0411914 0.01113 0.0170641 0.0398449 0.0121251 0.0154855 0.0367227 0.0122352 
0.0143622 0.0410032 0.0122553 0.00579739 0.0491189 0.0120254 0.00336687 0.0499461 0.0133751 
0.00760632 0.0427225 0.0131624 0.00388799 0.0459342 0.0122789 0.00872217 0.0484102 0.0125273 
0.0059523 0.0476335 0.012778 0.00924868 0.046758 0.0121482 0.00468556 0.0435336 0.0128194 
0.00671498 0.0435709 0.0120692 0.00270815 0.0462048 0.0109944 0.0107521 0.0479781 0.0114587 
0.00140546 0.0454876 0.0123153 0.00087544 0.0465566 0.0108754 0.00132705 0.0480655 0.0123525 
0.00370875 0.0444858 0.0109944 0.000770427 0.0449174 0.0107704 0.00707979 0.0494178 0.0109944 
0.00171704 0.0428651 0.0116574 0.0112777 0.0447052 0.011883 0.00849574 0.0455843 0.01113 
0.00592787 0.0455653 0.0114587 0.00797771 0.0476403 0.0109944 0.00391018 0.0482924 0.0114587 
0.00611996 0.0478174 0.0108754 0.00857131 0.0431733 0.0112839 0.00560822 0.0433278 0.0108754 
[...]
POINT_DATA 538
FIELD FieldData 7
id 1 538 int
1 2 3 4 5 6 7 8 9 
10 11 12 13 14 15 16 17 18 
19 20 21 22 24 25 26 29 31 
33 34 35 38 39 45 55 56 57 
58 59 60 61 62 63 64 65 66 
67 68 69 70 71 72 73 76 77 
80 81 82 85 90 95 96 106 107 
108 109 110 111 112 113 114 115 116 
117 118 119 120 121 122 124 126 128 
129 131 132 133 134 141 144 155 162 
163 164 165 166 167 168 169 170 171 
172 173 174 175 176 177 178 179 181 
184 187 190 191 192 194 197 198 200 
219 220 222 223 224 225 226 227 228 
229 230 231 232 233 234 235 236 237 
238 239 240 241 242 244 245 248 250 
251 254 262 264 265 270 273 275 276 
279 283 284 285 286 287 288 289 290 
291 292 293 294 295 296 297 298 299 
300 301 302 303 305 306 308 309 310 
317 330 331 332 333 334 335 336 337 
338 339 340 341 342 343 344 346 347 
348 349 351 353 357 359 362 366 368 
375 376 379 380 382 385 386 387 388 
389 390 391 392 393 394 395 396 397 
398 399 400 401 402 403 404 405 406 
408 409 410 411 413 415 416 417 418 
419 421 435 436 437 439 440 441 442 
443 444 445 446 447 448 449 450 451 
453 455 456 457 458 459 460 466 478 
479 497 498 499 500 501 502 503 504 
505 506 507 508 509 510 511 513 514 
515 516 517 522 523 524 535 486 487 
488 489 490 491 492 493 494 495 496 
512 518 519 520 521 525 526 527 528 
529 530 531 532 533 534 536 537 538 
438 452 454 461 462 463 464 465 467 
468 469 470 471 472 473 474 475 476 
477 480 481 482 483 484 485 355 356 
358 360 361 363 364 365 367 369 370 
371 372 373 374 377 378 381 383 384 
407 412 414 420 422 423 424 425 426 
427 428 429 430 431 432 433 434 266 
267 268 269 271 272 274 277 278 280 
281 282 304 307 311 312 313 314 315 
316 318 319 320 321 322 323 324 325 
326 327 328 329 345 350 352 354 207 
208 209 210 211 212 213 214 215 216 
217 218 221 243 246 247 249 252 253 
255 256 257 258 259 260 261 263 142 
143 145 146 147 148 149 150 151 152 
153 154 156 157 158 159 160 161 180 
182 183 185 186 188 189 193 195 196 
199 201 202 203 204 205 206 86 87 
88 89 91 92 93 94 97 98 99 
100 101 102 103 104 105 123 125 127 
130 135 136 137 138 139 140 23 27 
28 30 32 36 37 40 41 42 43 
44 46 47 48 49 50 51 52 53 
54 74 75 78 79 83 84 
type 1 538 int
1 1 1 1 1 1 1 1 1 
1 1 1 1 1 1 1 1 1 
1 1 1 1 1 1 1 1 1 
1 1 1 1 1 1 1 1 1 
1 1 1 1 1 1 1 1 1 
1 1 1 1 1 1 1 1 1 
1 1 1 1 1 1 1 1 1 
1 1 1 1 1 1 1 1 1 
1 1 1 1 1 1 1 1 1 
1 1 1 1 1 1 1 1 1 
1 1 1 1 1 1 1 1 1 
1 1 1 1 1 1 1 1 1 
1 1 1 1 1 1 1 1 1 
1 1 1 1 1 1 1 1 1 
1 1 1 1 1 1 1 1 1 
1 1 1 1 1 1 1 1 1 
1 1 1 1 1 1 1 1 1 
1 1 1 1 1 1 1 1 1 
1 1 1 1 1 1 1 1 1 
1 1 1 1 1 1 1 1 1 
1 1 1 1 1 1 1 1 1 
1 1 1 1 1 1 1 1 1 
1 1 1 1 1 1 1 1 1 
1 1 1 1 1 1 1 1 1 
1 1 1 1 1 1 1 1 1 
1 1 1 1 1 1 1 1 1 
1 1 1 1 1 1 1 1 1 
1 1 1 1 1 1 1 1 1 
1 1 1 1 1 1 1 1 1 
1 1 1 1 1 1 1 1 1 
1 1 1 1 1 1 1 1 1 
1 1 1 1 1 1 1 1 1 
1 1 1 1 1 1 1 1 1 
1 1 1 1 1 1 1 1 1 
1 1 1 1 1 1 1 1 1 
1 1 1 1 1 1 1 1 1 
1 1 1 1 1 1 1 1 1 
1 1 1 1 1 1 1 1 1 
1 1 1 1 1 1 1 1 1 
1 1 1 1 1 1 1 1 1 
1 1 1 1 1 1 1 1 1 
1 1 1 1 1 1 1 1 1 
1 1 1 1 1 1 1 1 1 
1 1 1 1 1 1 1 1 1 
1 1 1 1 1 1 1 1 1 
1 1 1 1 1 1 1 1 1 
1 1 1 1 1 1 1 1 1 
1 1 1 1 1 1 1 1 1 
1 1 1 1 1 1 1 1 1 
1 1 1 1 1 1 1 1 1 
1 1 1 1 1 1 1 1 1 
1 1 1 1 1 1 1 1 1 
1 1 1 1 1 1 1 1 1 
1 1 1 1 1 1 1 1 1 
1 1 1 1 1 1 1 1 1 
1 1 1 1 1 1 1 1 1 
1 1 1 1 1 1 1 1 1 
1 1 1 1 1 1 1 1 1 
1 1 1 1 1 1 1 1 1 
1 1 1 1 1 1 1 
i 3 538 int
0 0 0 0 0 0 0 0 0 
0 0 0 0 0 0 0 0 0 
0 0 0 0 0 0 0 0 0 
0 0 0 0 0 0 0 0 0 
0 0 0 0 0 0 0 0 0 
0 0 0 0 0 0 0 0 0 
0 0 0 0 0 0 0 0 0 
0 0 0 0 0 0 0 0 0 
0 0 0 0 0 0 0 0 0 
0 0 0 0 0 0 0 0 0 
0 0 0 0 0 0 0 0 0 
0 0 0 0 0 0 0 0 0 
0 0 0 0 0 0 0 0 0 
0 0 0 0 0 0 0 0 0 
0 0 0 0 0 0 0 0 0 
0 0 0 0 0 0 0 0 0 
0 0 0 0 0 0 0 0 0 
0 0 0 0 0 0 0 0 0 
0 0 0 0 0 0 0 0 0 
0 0 0 0 0 0 0 0 0 
0 0 0 0 0 0 0 0 0 
0 0 0 0 0 0 0 0 0 
0 0 0 0 0 0 0 0 0 
0 0 0 0 0 0 0 0 0 
0 0 0 0 0 0 0 0 0 
0 0 0 0 0 0 0 0 0 
0 0 0 0 0 0 0 0 0 
0 0 0 0 0 0 0 0 0 
0 0 0 0 0 0 0 0 0 
0 0 0 0 0 0 0 0 0 
0 0 0 0 0 0 0 0 0 
0 0 0 0 0 0 0 0 0 
0 0 0 0 0 0 0 0 0 
0 0 0 0 0 0 0 0 0 
0 0 0 0 0 0 0 0 0 
0 0 0 0 0 0 0 0 0 
0 0 0 0 0 0 0 0 0 
0 0 0 0 0 0 0 0 0 
0 0 0 0 0 0 0 0 0 
0 0 0 0 0 0 0 0 0 
0 0 0 0 0 0 0 0 0 
0 0 0 0 0 0 0 0 0 
0 0 0 0 0 0 0 0 0 
0 0 0 0 0 0 0 0 0 
0 0 0 0 0 0 0 0 0 
0 0 0 0 0 0 0 0 0 
0 0 0 0 0 0 0 0 0 
0 0 0 0 0 0 0 0 0 
0 0 0 0 0 0 0 0 0 
0 0 0 0 0 0 0 0 0 
0 0 0 0 0 0 0 0 0 
0 0 0 0 0 0 0 0 0 
0 0 0 0 0 0 0 0 0 
0 0 0 0 0 0 0 0 0 
0 0 0 0 0 0 0 0 0 
0 0 0 0 0 0 0 0 0 
0 0 0 0 0 0 0 0 0 
0 0 0 0 0 0 0 0 0 
0 0 0 0 0 0 0 0 0 
0 0 0 0 0 0 0 0 0 
0 0 0 0 0 0 0 0 0 
0 0 0 0 0 0 0 0 0 
0 0 0 0 0 0 0 0 0 
0 0 0 0 0 0 0 0 0 
0 0 0 0 0 0 0 0 0 
0 0 0 0 0 0 0 0 0 
0 0 0 0 0 0 0 0 0 
0 0 0 0 0 0 0 0 0 
0 0 0 0 0 0 0 0 0 
0 0 0 0 0 0 0 0 0 
0 0 0 0 0 0 0 0 0 
0 0 0 0 0 0 0 0 0 
0 0 0 0 0 0 0 0 0 
0 0 0 0 0 0 0 0 0 
0 0 0 0 0 0 0 0 0 
0 0 0 0 0 0 0 0 0 
0 0 0 0 0 0 0 0 0 
0 0 0 0 0 0 0 0 0 
0 0 0 0 0 0 0 0 0 
0 0 0 0 0 0 0 0 0 
0 0 0 0 0 0 0 0 0 
0 0 0 0 0 0 0 0 0 
0 0 0 0 0 0 0 0 0 
0 0 0 0 0 0 0 0 0 
0 0 0 0 0 0 0 0 0 
0 0 0 0 0 0 0 0 0 
0 0 0 0 0 0 0 0 0 
0 0 0 0 0 0 0 0 0 
0 0 0 0 0 0 0 0 0 
0 0 0 0 0 0 0 0 0 
0 0 0 0 0 0 0 0 0 
0 0 0 0 0 0 0 0 0 
0 0 0 0 0 0 0 0 0 
0 0 0 0 0 0 0 0 0 
0 0 0 0 0 0 0 0 0 
0 0 0 0 0 0 0 0 0 
0 0 0 0 0 0 0 0 0 
0 0 0 0 0 0 0 0 0 
0 0 0 0 0 0 0 0 0 
0 0 0 0 0 0 0 0 0 
0 0 0 0 0 0 0 0 0 
0 0 0 0 0 0 0 0 0 
0 0 0 0 0 0 0 0 0 
0 0 0 0 0 0 0 0 0 
0 0 0 0 0 0 0 0 0 
0 0 0 0 0 0 0 0 0 
0 0 0 0 0 0 0 0 0 
0 0 0 0 0 0 0 0 0 
0 0 0 0 0 0 0 0 0 
0 0 0 0 0 0 0 0 0 
0 0 0 0 0 0 0 0 0 
0 0 0 0 0 0 0 0 0 
0 0 0 0 0 0 0 0 0 
0 0 0 0 0 0 0 0 0 
0 0 0 0 0 0 0 0 0 
0 0 0 0 0 0 0 0 0 
0 0 0 0 0 0 0 0 0 
0 0 0 0 0 0 0 0 0 
0 0 0 0 0 0 0 0 0 
0 0 0 0 0 0 0 0 0 
0 0 0 0 0 0 0 0 0 
0 0 0 0 0 0 0 0 0 
0 0 0 0 0 0 0 0 0 
0 0 0 0 0 0 0 0 0 
0 0 0 0 0 0 0 0 0 
0 0 0 0 0 0 0 0 0 
0 0 0 0 0 0 0 0 0 
0 0 0 0 0 0 0 0 0 
0 0 0 0 0 0 0 0 0 
0 0 0 0 0 0 0 0 0 
0 0 0 0 0 0 0 0 0 
0 0 0 0 0 0 0 0 0 
0 0 0 0 0 0 0 0 0 
0 0 0 0 0 0 0 0 0 
0 0 0 0 0 0 0 0 0 
0 0 0 0 0 0 0 0 0 
0 0 0 0 0 0 0 0 0 
0 0 0 0 0 0 0 0 0 
0 0 0 0 0 0 0 0 0 
0 0 0 0 0 0 0 0 0 
0 0 0 0 0 0 0 0 0 
0 0 0 0 0 0 0 0 0 
0 0 0 0 0 0 0 0 0 
0 0 0 0 0 0 0 0 0 
0 0 0 0 0 0 0 0 0 
0 0 0 0 0 0 0 0 0 
0 0 0 0 0 0 0 0 0 
0 0 0 0 0 0 0 0 0 
0 0 0 0 0 0 0 0 0 
0 0 0 0 0 0 0 0 0 
0 0 0 0 0 0 0 0 0 
0 0 0 0 0 0 0 0 0 
0 0 0 0 0 0 0 0 0 
0 0 0 0 0 0 0 0 0 
0 0 0 0 0 0 0 0 0 
0 0 0 0 0 0 0 0 0 
0 0 0 0 0 0 0 0 0 
0 0 0 0 0 0 0 0 0 
0 0 0 0 0 0 0 0 0 
0 0 0 0 0 0 0 0 0 
0 0 0 0 0 0 0 0 0 
0 0 0 0 0 0 0 0 0 
0 0 0 0 0 0 0 0 0 
0 0 0 0 0 0 0 0 0 
0 0 0 0 0 0 0 0 0 
0 0 0 0 0 0 0 0 0 
0 0 0 0 0 0 0 0 0 
0 0 0 0 0 0 0 0 0 
0 0 0 0 0 0 0 0 0 
0 0 0 0 0 0 0 0 0 
0 0 0 0 0 0 0 0 0 
0 0 0 0 0 0 0 0 0 
0 0 0 0 0 0 0 0 0 
0 0 0 0 0 0 0 0 0 
0 0 0 0 0 0 0 0 0 
0 0 0 0 0 0 0 0 0 
0 0 0 0 0 0 0 0 0 
0 0 0 0 0 0 0 0 0 
0 0 0 0 0 0 0 0 0 
0 0 0 
v 3 538 double
-0.000513979 -0.000303066 0.000118595 2.21373e-05 -0.00061273 -1.72757e-11 0.000963671 -0.000147499 5.48127e-05 
0.001991 -0.000542542 -4.0436e-05 -7.32753e-05 -0.00141958 0.00016312 0.00219639 -0.00138073 0.000131902 
-3.58086e-05 -0.000212147 -6.5509e-05 -7.69921e-06 -0.000153714 -9.70092e-06 -0.00141823 -0.00148958 1.11891e-05 
0.00104456 -9.47601e-05 2.76106e-05 -0.000640169 -0.000217322 -8.68491e-12 -0.00604296 -3.02274e-05 -9.27221e-12 
0.000573381 -0.000909013 -0.000560604 -0.000143016 -0.0013903 1.3616e-07 3.09802e-05 1.1886e-05 -0.000814651 
-0.00125856 -0.00120803 -4.29885e-05 0.000864439 -2.7808e-05 8.98757e-05 -8.12188e-05 -0.00114334 1.62288e-05 
0.00474419 0.0326943 -1.35548e-11 0.00221648 -0.000410807 -0.000607956 0.00130603 -0.000287278 0.000481528 
0.00113975 -0.00129325 0.00170514 -0.000143888 0.0904347 -0.00859158 0.00118231 -0.000285449 9.26719e-05 
0.00089212 -0.000204843 -3.93037e-07 4.69281e-05 -0.00118586 0.000372353 -0.0064863 -0.0111634 0.00696745 
0.00393625 -0.00736168 -0.00394696 0.000984494 -1.64926e-05 9.49047e-05 0.00162604 -5.10453e-06 -0.000587266 
-9.07936e-05 -0.001433 0.00027639 0.00170745 -5.66044e-05 -0.000224773 -0.00158999 -0.0156784 3.23951e-05 
0.00586443 -0.0111933 0.000110421 0.00595734 -0.0107262 -0.0002564 0.00252134 0.00041085 -3.69602e-06 
-0.0342493 -0.0344275 -0.000247472 0.0126001 0.00331061 -3.33773e-05 0.01369 -0.00375386 1.0818e-05 
0.159189 -0.0388037 -0.000251562 -2.53357e-05 0.000399458 2.0971e-05 0.00247303 0.000105756 0.000327428 
0.00897218 -0.00285093 0.00012379 0.017908 5.55359e-05 6.06232e-05 -0.0201906 0.0172757 5.53839e-12 
0.0168098 0.000583804 0.000194801 0.0177249 2.04835e-05 -0.000242262 -0.00122109 0.0318478 0.000492923 
0.0331561 -0.0280035 -0.146697 0.124738 -0.080082 -0.00137738 0.113669 0.0336915 0.0107139 
0.014438 -0.00345681 1.89762e-05 -0.00970562 -0.00916443 -0.000156795 -8.05483e-06 -7.46707e-05 0.000341912 
0.000524405 0.00669031 -0.0011411 -0.000244134 0.0129419 -0.000452342 0.0956083 0.0670319 0.010066 
0.0108349 -0.00544907 0.000805207 0.0045272 7.6591e-05 0.00471093 -0.00880445 -0.00547698 0.000679806 
0.00669379 2.22149e-05 0.00723876 0.0071553 -0.00493038 0.000479645 -0.0179751 -0.00343357 -0.000131183 
-0.00870828 -0.0186116 0.000961609 0.00557444 -0.00202478 -0.0008552 -0.00324681 -0.00190566 -0.000129939 
-0.011609 -0.0104567 -5.58938e-05 0.00600619 -0.00373142 5.3611e-05 -0.00013221 -0.00147095 9.3483e-07 
0.000133309 -0.0014307 1.29348e-05 0.0062766 0.0081862 -7.97375e-12 -4.16005e-05 -0.001463 -4.08211e-05 
0.0044227 0.0207446 -8.72188e-05 0.00116517 -0.00273571 -0.00184793 0.000185545 0.0121057 -0.00881738 
0.00608776 -0.00352433 -6.43434e-06 0.000902108 -0.0114124 0.00610406 -5.75206e-06 0.011996 -0.0106418 
0.00408673 0.00417911 -0.0113353 -0.00338912 -0.0148428 0.0126874 -0.0540898 -0.00508964 -0.0010383 
-0.00890091 0.00458523 0.00423534 -0.0164657 -0.0142359 -0.00399737 -0.246826 -0.00969076 -0.243114 
-0.0200811 0.0211069 1.72726e-11 -0.00613813 -0.00228939 -0.000132268 -0.0176355 0.010832 0.000467032 
0.000363341 -0.124285 1.63097e-11 5.03419e-06 -0.00187332 0.0104463 -0.0428513 -0.0110721 0.000535606 
0.0555906 0.0224875 -0.0915406 -0.0240702 0.0942172 1.00724e-12 0.0456 -0.061883 -0.0601444 
-0.0253166 0.0259307 -0.000129238 -0.0115771 -0.00318043 -1.48254e-05 0.0142796 0.0193076 0.000186795 
-0.0249634 0.00667744 0.00189732 0.0506166 0.0326448 -9.39081e-05 -0.0276921 0.0493816 -1.04219e-05 
0.0162128 0.0450552 0.0023464 -0.0222017 0.00260815 0.000539195 0.00582457 0.0204968 3.88995e-05 
-0.000235959 0.0300338 1.18553e-12 -0.0292487 0.0661429 0.0015162 -0.0476103 0.0766562 0.0100818 
-0.00407093 0.0485078 -0.00650894 -0.0158389 0.00379328 0.00192878 -0.000320051 0.00818528 0.0125586 
-0.0103444 -0.0050281 0.000191491 -0.0334634 -0.00496546 -0.0204425 -0.0501334 -0.0127126 -0.0250626 
-0.00693966 -0.00941497 -5.43337e-05 0.0379383 0.00460927 -0.0351782 -0.000470942 0.00123395 0.000421558 
0.0511602 -0.0291495 -0.0441452 -0.0378349 -0.027883 -0.00524776 -0.00305557 0.00299922 0.00129135 
-0.321364 0.0750081 0.0290058 -0.00837384 -0.0177216 0.000634423 -0.00703336 -0.0139619 -0.0133343 
-0.000304714 0.0151426 -8.74845e-05 -0.00945177 -0.00818931 -7.43583e-05 0.0101641 0.00095215 -4.93106e-05 
-0.0307841 0.0334322 0.00490607 5.45217e-05 0.0259316 -1.08149e-05 0.00938878 -0.0222995 0.000797555 
-0.0140721 -0.00096699 0.000681955 0.00011086 0.0257315 6.3339e-06 -0.0024561 0.0231299 6.47087e-05 
-0.00733039 0.00146564 0.000685433 -0.0426913 0.0107126 0.00290642 -0.00108797 0.0153819 0.00304628 
-0.023822 -0.0243929 0.00352733 -0.00423494 -0.0242151 5.75064e-12 4.98831e-05 0.02611 0.000140617 
0.012168 -0.00965004 0.000464353 -0.0101101 -0.00316439 0.00159723 -0.0117452 -0.0123944 -0.00258126 
0.00465645 -0.00299144 -0.000128389 -0.0125688 0.0294937 -0.00242706 -0.00808191 -0.00134921 -0.000103112 
-6.62575e-05 0.0190719 0.00355562 0.00734413 0.00382809 0.00171286 0.00677701 -0.024523 -0.0111194 
0.0455663 -0.0840958 0.0412288 0.447425 -0.0150588 -0.405397 -0.0254236 0.0214038 0.00670161 
0.0135535 0.0104427 0.00153168 0.00111607 0.00763378 -0.000126275 0.348856 -0.188355 -0.235922 
0.0785793 -0.0147958 6.24955e-12 0.000317388 0.00668712 8.94846e-05 -0.00380312 0.00261558 -0.00345845 
-0.0296619 0.0102702 0.00579176 -0.000620386 -0.0288056 0.0376908 0.00409945 -0.00119139 -0.00895419 
-0.0612506 0.0393193 0.000428661 0.124882 -0.0744719 0.00242972 0.0124781 0.0227682 0.00106805 
-0.000352052 -0.014517 3.70118e-12 0.0119501 -0.0407534 3.49621e-05 -0.0250797 -0.0525937 -0.00125843 
-0.019573 -0.0424156 -0.0450207 0.00108211 -0.00484789 8.11202e-05 0.0109655 0.00469644 0.000418056 
-0.0774648 0.0029878 0.00183181 -0.00037675 -0.0147286 6.22669e-12 0.00551599 0.00768775 0.000121298 
-0.0141943 0.0156433 -0.000573326 -0.061295 -0.019679 -6.22226e-05 -0.0369462 0.0549522 1.49482e-05 
-0.000353962 0.00500762 0.000361466 0.000191399 -0.0706736 0.0274891 0.000215935 0.00616284 0.000541586 
-0.017125 0.015762 0.000324866 0.0260258 -0.0216037 -0.00119097 0.295188 -0.269693 0.0583997 
0.0313724 0.114923 -0.00815674 0.0043899 0.0101813 0.00788794 -0.000871426 0.00818816 0.00857401 
-0.000158698 0.00888058 0.0103825 0.000299823 0.000337557 -0.000356274 -0.00300422 0.00197794 -2.23638e-05 
-0.0014597 0.000301908 0.000111724 0.0141756 -0.0120514 -0.000136523 0.00649218 0.00527964 -0.000215819 
0.0219535 0.00395537 1.306e-05 0.000322892 -0.0174484 0.00027747 -0.00203001 -0.0183863 1.16747e-05 
0.00810356 0.00532906 0.000268388 0.0182298 -0.0140096 0.000568164 0.0259534 0.0163951 -0.000131842 
0.0140256 -0.0126985 1.95843e-05 -0.000274972 -0.00344703 -0.0240429 0.0546011 -0.0743183 -0.0140034 
0.0121173 -0.000506467 -2.17794e-05 0.027403 -0.0135264 0.00769226 0.0182537 0.0120022 0.0117561 
-0.00298797 -0.000536677 -0.00764996 0.00226278 0.0335868 0.0229024 0.0112811 -0.0229719 -0.00019494 
0.000295601 0.0111733 -0.00391198 -0.000543508 0.00780572 0.0045129 0.00679642 0.00417096 -5.16243e-05 
-0.00734972 -0.0126405 0.00639969 3.5047e-05 -0.00721988 -0.0103719 0.0217969 -0.00335476 0.00481653 
-0.00478409 0.00587438 0.000724156 0.0184729 -0.00503254 -0.00393688 0.00687084 0.00592293 7.3986e-06 
0.000226445 0.00431332 -0.000363395 -0.00011442 0.00263066 0.00012161 -0.000800933 0.00355358 0.00260723 
0.00692655 -0.0789447 -1.36135e-11 0.000795776 0.00310131 0.00012199 0.0109249 0.00721481 -0.000514959 
-0.00137988 0.000177694 -0.000100473 0.00185876 0.00462482 -0.0015796 0.000760574 0.000404322 0.00661436 
0.00139578 0.0249941 0.00673678 -0.000736583 0.00537187 0.000354659 0.00619588 0.023304 0.000407812 
-0.00122756 2.7157e-05 0.000110322 -0.00101539 0.000377101 4.76487e-06 -0.00304949 -0.000359974 0.000201114 
0.0040221 -0.000517778 -3.14583e-06 8.80583e-05 -0.000379209 -2.45791e-05 0.0692685 -0.0580612 5.60234e-13 
0.00349228 -0.00183378 -6.73309e-05 -0.0012596 0.00111574 7.98055e-05 -0.000343212 0.0466056 -9.2029e-12 
-0.000718796 0.00160654 -0.00375495 0.00671369 0.0238746 -0.00155409 -0.000857611 0.00894919 -0.0185072 
0.0402362 0.0035672 -1.50931e-13 -0.0125445 0.0453309 -1.01072e-11 -0.00215094 0.00113918 7.76591e-05 
0.00146676 0.00241502 1.31181e-05 -0.0143632 0.020599 -8.10686e-06 0.00133407 0.00862981 0.00830546 
-0.000677033 -0.00272585 0.000768812 -0.0154864 -0.0943644 -0.0226273 0.000172742 0.000470713 -8.5825e-05 
1.17396e-05 -0.000420928 6.60396e-05 6.71596e-05 0.00429768 -0.00199313 7.03613e-06 0.00412008 0.000193663 
-0.000123829 0.00376416 -0.000102963 -0.000110911 0.000921906 -2.36562e-06 -3.57798e-05 0.00338998 -6.98603e-05 
0.00705835 0.0269248 -1.15296e-11 -0.000254053 -7.55345e-05 -2.17321e-05 0.0139236 -0.00159951 4.62475e-05 
0.0032937 -0.0054174 -3.553e-06 0.000557782 0.000510623 8.31807e-05 0.0102992 -0.00517378 -1.6715e-05 
0.0331412 0.020499 1.73007e-11 0.00401017 0.000129258 -5.20846e-05 -0.028495 -0.000793329 7.62993e-13 
-2.91439e-05 0.00302131 7.86086e-07 0.00647104 0.00443249 -4.88964e-05 -8.88212e-07 0.00230023 -0.00051222 
0.0117958 -0.00986493 -3.0488e-05 0.00392323 -0.000747558 -0.000556405 0.0038223 0.00845826 -0.00455931 
0.00184697 0.00266755 -0.00133491 -0.0757453 -0.00944882 -1.31592e-11 0.00508932 -0.00907866 0.00245867 
0.0168662 -0.00792381 0.00557558 0.00388301 -0.0170566 2.13318e-11 0.0116379 0.000347279 7.58383e-05 
0.00257238 -0.000199519 -0.00079469 0.000347367 0.00112654 1.62093e-05 0.0123721 0.00101233 2.44475e-05 
-1.2425e-05 -0.000490486 1.91119e-05 -0.0476077 0.0281683 -0.00893163 0.000338678 0.00118588 6.90926e-06 
-1.03218e-06 -0.000518586 2.54442e-06 0.000188213 5.58448e-05 -1.88981e-05 -0.00573903 -0.00454741 1.39781e-06 
-5.37033e-05 4.26465e-05 7.24029e-05 -0.006955 -0.000908258 5.11791e-05 -1.70134e-05 0.000436469 -7.14429e-05 
-0.000322129 0.0011288 1.37415e-11 0.000429044 0.000973299 -6.50699e-05 -0.00660892 -0.00211676 9.6775e-06 
-0.000235351 -0.000642835 -5.68208e-05 3.57446e-06 -0.000584863 -3.47292e-05 0.00232266 -0.00208552 2.51578e-05 
-0.00631471 -0.00162231 -0.000307819 0.000191612 0.00010932 3.07779e-05 0.000256416 0.00483912 2.82433e-05 
0.00372761 0.00554286 5.62704e-05 -0.00435241 0.00634836 0.00225807 0.0120557 -0.00500429 0.00279475 
0.00577632 -0.0709054 -0.0100023 0.00205311 -0.00642781 -0.00523816 -0.000971201 -0.00919342 -0.00448393 
-0.0149471 0.0147317 -0.0112753 0.0358871 0.146601 -0.00180808 0.0135987 0.0155684 -0.0147657 
0.0581687 -0.000211963 -0.00468295 -0.127534 0.142763 -0.068569 0.00899657 -0.00180169 0.00056165 
0.0182613 -0.00214572 -0.0100442 -0.00199738 -0.00981351 1.55865e-05 0.0184 0.00169916 -1.22706e-05 
-0.00520861 -0.000466894 0.00203423 -0.000120779 -0.0010191 -3.51632e-05 0.00246771 -0.00209053 0.000217738 
0.00991712 -0.00265689 -0.000111942 3.79315e-05 -0.00101526 2.06556e-05 0.00519126 -0.00219203 -3.16567e-05 
0.00637031 0.00192535 9.17793e-06 0.0119195 0.000588272 4.16141e-05 0.00991662 -0.00495555 5.71162e-05 
0.00970454 -0.00258646 3.39296e-05 0.00541922 -0.00599424 1.06136e-05 0.00336775 -0.0129716 1.02428e-06 
0.00568727 -0.00235165 -4.23416e-06 0.0200381 -0.0130191 -7.08345e-05 0.00772425 -0.00232204 1.84721e-06 
0.00589321 0.00303821 0.000536989 0.00551092 -0.000271515 -2.62126e-06 -1.28359e-05 -0.00188657 -0.0036523 
-0.00368816 0.0102702 -0.000742283 -0.00388466 -0.00879766 0.00367801 -0.00681112 0.00681493 0.00508517 
0.0116767 0.0154599 -1.55516e-11 0.0143797 0.0220094 0.000388397 -6.54239e-05 -0.0368064 0.010056 
0.0195232 -0.00635972 0.0025166 0.0405255 0.0397908 -0.0158969 0.0104747 -0.00124079 -1.11163e-05 
0.0304241 0.00193045 -0.0122768 0.0055104 0.0107997 -2.78504e-05 0.0287691 -0.0531236 -2.86048e-06 
0.000334006 -0.000413148 -0.000136751 0.0329779 -0.0454197 6.28959e-05 0.0188411 0.0135829 5.76441e-05 
-0.0151079 -0.0257268 -2.85462e-12 0.0162062 -0.00281573 -6.5996e-05 0.0562444 -0.0013047 0.00523752 
0.000103483 -0.0392603 2.14905e-06 -0.000365808 -0.0211368 1.53982e-09 0.0266335 0.020034 -3.35295e-05 
-0.00220044 0.0112476 -0.000194274 0.0167133 0.00740289 0.000109653 -0.00197754 -0.0353951 0.0213227 
-0.000126023 -0.00240666 3.31808e-05 -0.00672703 -0.00428805 0.000233729 0.0214079 -0.015591 4.89189e-05 
0.00206775 -0.00981724 -0.000962423 -0.00487759 0.00451652 0.0150973 7.04523e-05 -0.00193749 0.00623778 
0.00368578 -0.0068442 -0.00125021 0.00198682 0.0146017 -0.0155406 0.000332494 -0.00310826 -0.00262849 
-0.00495221 -0.0055167 -0.00768707 -9.31447e-05 -0.00243947 -0.000127686 -0.00679662 -0.00391546 7.40725e-05 
-0.00152124 -0.010673 0.00256713 0.00238143 -0.0190688 -0.0230004 0.0145779 -0.00896514 -0.00294079 
3.78352e-05 -0.00701212 -0.000504271 -0.00375264 -0.00630174 5.00955e-05 0.00828498 -0.00177356 1.00429e-05 
-0.00447338 -0.0100131 0.00132017 -0.0030078 0.00342237 -9.65495e-06 -0.00451549 -0.00760456 3.76944e-05 
0.00663836 -0.00525971 8.31995e-06 -0.0516087 0.0532162 1.54947e-11 -0.00139562 -0.00492908 -1.17294e-05 
0.00177348 -0.00479707 -2.48981e-05 -0.00617723 -0.00104472 0.000334812 7.35338e-05 0.000783802 1.13574e-11 
0.0249416 0.0103354 -3.77005e-12 -0.00293282 -0.00832809 1.53629e-06 0.0350565 -0.02242 -7.87415e-13 
-0.00244625 -0.007354 -0.000220255 -0.000103824 -0.00616864 -0.000178881 0.0100159 0.00247717 0.000588823 