# vtk DataFile Version 4.0
Generated by LIGGGHTS
ASCII
DATASET POLYDATA
POINTS 538 float
0.0101736 0.0045527 0.0116574 0.00411763 0.00438242 0.0108755 0.00639128 0.00213942 0.0121393 
0.00310525 0.00662065 0.0116573 0.000677967 0.00742964 0.010678 0.00687007 0.0065176 0.0121393 
0.00217412 0.00344754 0.0106779 0.00421464 0.000770773 0.0107705 0.000770487 0.00598713 0.0107704 
0.00220531 0.00145878 0.0114587 0.00565779 0.00443452 0.010678 0.00388506 0.00275604 0.0107705 
0.00794358 0.00418493 0.0107704 0.000770465 0.00301997 0.0107704 0.000770469 0.000770481 0.0130199 
0.00118706 0.00450355 0.0107705 0.00261836 0.00099446 0.013832 0.00087549 0.00312502 0.0124096 
0.00270014 0.00467216 0.0105965 0.00251234 0.00409015 0.0121844 0.00439962 0.00457245 0.0130356 
0.0083073 0.00414514 0.0133208 0.000994439 0.0072846 0.0131189 0.00347996 0.00266234 0.0131749 
0.00985846 0.00145878 0.0114587 0.000770487 0.00518687 0.0120873 0.0102105 0.00751273 0.0125221 
0.00216504 0.0052766 0.0135874 0.00879312 0.000875474 0.0134522 0.0114717 0.000994482 0.0132477 
0.000770469 0.00441798 0.0134227 0.00958212 0.00688821 0.0108754 0.0113964 0.00679215 0.0137756 
0.0120307 0.00570393 0.012716 0.0120473 0.00581642 0.0107704 0.0125901 0.00128393 0.0112839 
0.0152108 0.00618041 0.01113 0.0225249 0.00367472 0.0114587 0.0165856 0.00401151 0.0114588 
0.0198257 0.00431338 0.0112839 0.0228699 0.00113005 0.01113 0.0145119 0.000770447 0.0107704 
0.0160635 0.00195652 0.0107704 0.0208968 0.000875494 0.0108754 0.0214219 0.00565676 0.010678 
0.0167376 0.00067791 0.010678 0.0186179 0.00165745 0.0116574 0.02287 0.00795106 0.01113 
0.0172159 0.00749497 0.011411 0.0181634 0.00562986 0.0108754 0.0228699 0.00656213 0.012913 
0.0134748 0.00406418 0.0116574 0.0199226 0.0070489 0.0114588 0.0230055 0.00191524 0.0130994 
0.0231227 0.00586919 0.0108755 0.0230055 0.00458732 0.0136847 0.0213002 0.00542077 0.0124075 
0.0150852 0.00162859 0.0127464 0.02146 0.000875485 0.0125333 0.0129656 0.00804351 0.011883 
0.0200681 0.000994485 0.0137764 0.0090389 0.00902449 0.0112839 0.00454763 0.0121526 0.0112839 
0.00787355 0.0141682 0.0121393 0.00638119 0.00887628 0.0106779 0.00421226 0.015051 0.0116573 
0.0111503 0.0108172 0.0114587 0.00446694 0.00941662 0.0114587 0.00113003 0.0118057 0.01113 
0.00145881 0.00925899 0.0114587 0.00837559 0.0118122 0.010678 0.000770474 0.013637 0.0107704 
0.00196269 0.0159135 0.0108754 0.00970841 0.0123718 0.0107704 0.00113008 0.0147421 0.0122743 
0.00690116 0.0106684 0.0112839 0.0102879 0.00931307 0.0130217 0.000677982 0.0129969 0.0124129 
0.00288163 0.0108885 0.0126159 0.00884379 0.0109827 0.0129337 0.0114368 0.0132091 0.0109944 
0.00253076 0.0129781 0.012461 0.0059865 0.0118261 0.0130201 0.00278028 0.0171524 0.0127991 
0.0106242 0.00803995 0.010678 0.00445778 0.0130474 0.0133774 0.0106578 0.0150393 0.0109944 
0.000526983 0.014949 0.010525 0.000770486 0.0162734 0.0133409 0.0112584 0.014214 0.0125613 
0.0185047 0.0108927 0.0118322 0.0155029 0.0090698 0.0109944 0.0167394 0.00943357 0.0125093 
0.0173182 0.0154552 0.0112839 0.0142145 0.0113488 0.0116574 0.020626 0.0107392 0.0109944 
0.0151517 0.0164411 0.0108754 0.018753 0.00933503 0.01113 0.0218777 0.0127974 0.0114587 
0.0190166 0.0110656 0.0106779 0.0211484 0.00894777 0.0108754 0.016934 0.0110378 0.01113 
0.0228681 0.0103207 0.01113 0.020412 0.0157709 0.011883 0.0158998 0.0146528 0.0127007 
0.0185826 0.0130066 0.0114587 0.0160429 0.0133857 0.01113 0.0230055 0.0140195 0.0132623 
0.0125108 0.010408 0.0134588 0.01432 0.0157686 0.01366 0.0201133 0.0113542 0.0133132 
0.0231245 0.0146826 0.0108754 0.0150516 0.0131962 0.0131747 0.0232295 0.0154869 0.0123076 
0.01498 0.00944528 0.0131428 0.0135921 0.0146047 0.0116574 0.0230056 0.0166447 0.0109944 
0.000875429 0.0175663 0.0123276 0.00630916 0.0166306 0.0109944 0.0100475 0.0167746 0.0133342 
0.000770481 0.0170434 0.0107704 0.00630586 0.0238802 0.0114587 0.00315381 0.0197871 0.0109944 
0.00825906 0.0244152 0.0106779 0.00128397 0.0215589 0.0112839 0.00698686 0.0212751 0.0108754 
0.00407418 0.0222952 0.0112839 0.00113007 0.0191547 0.01113 0.00238648 0.0176124 0.0108754 
0.00529966 0.0202212 0.01113 0.00996062 0.0200911 0.0107704 0.0104285 0.0185166 0.0108754 
0.00276089 0.0230145 0.01337 0.00898418 0.0164837 0.0107705 0.000770477 0.0234808 0.0107704 
0.00609905 0.0216574 0.0124761 0.00296088 0.0208592 0.0126585 0.0078847 0.0188686 0.011883 
0.00447889 0.0179563 0.0112839 0.00929256 0.0224056 0.011883 0.00465049 0.0194893 0.0133369 
0.000994451 0.0240885 0.0124122 0.00572403 0.0170096 0.0126159 0.00447881 0.021598 0.0131736 
0.00471531 0.0233732 0.0127926 0.0104674 0.024579 0.0125579 0.00805089 0.02463 0.012626 
0.0110558 0.0244989 0.0109944 0.00292118 0.0245897 0.0112839 0.0120448 0.0234072 0.012591 
0.0122637 0.0228398 0.010678 0.000875388 0.0251471 0.0108754 0.0118605 0.0169528 0.0112839 
0.015868 0.016863 0.0128684 0.0121763 0.018576 0.0125029 0.0133109 0.0168068 0.012877 
0.0170872 0.0180114 0.01113 0.0139643 0.0222111 0.0109944 0.0149993 0.0240399 0.0109944 
0.0231212 0.0226974 0.0108755 0.0194372 0.0187242 0.0112839 0.012033 0.0205404 0.0114587 
0.0153017 0.0226974 0.0126129 0.0181919 0.0218495 0.0107703 0.0169712 0.023261 0.01113 
0.0185658 0.0170741 0.0106779 0.0233333 0.0212658 0.0105965 0.0223277 0.0191213 0.0116574 
0.0141428 0.0184637 0.0114587 0.0155038 0.0212615 0.0107705 0.0159829 0.0195173 0.0107704 
0.0205766 0.0221902 0.011883 0.0145182 0.0207573 0.0122443 0.0231245 0.0170359 0.0128541 
0.0140199 0.0204489 0.0106779 0.0173144 0.0204685 0.0128592 0.0132934 0.0219745 0.0126097 
0.0176765 0.0258332 0.0127543 0.0181442 0.023344 0.0128994 0.0231246 0.0213592 0.0125361 
0.0230055 0.0231344 0.0131117 0.0093624 0.0264291 0.0116574 0.00945994 0.028687 0.0107704 
0.00747113 0.0286515 0.0112839 0.00867541 0.0322052 0.01113 0.00132012 0.032053 0.0112839 
0.00342114 0.0271084 0.0112839 0.000994463 0.0270094 0.0109944 0.00535082 0.0286304 0.0108754 
0.00611588 0.0312352 0.0116574 0.00593666 0.0265924 0.0112839 0.0107565 0.0313234 0.01113 
0.0088898 0.0302275 0.0108754 0.00165737 0.0292776 0.0121979 0.00461413 0.0253122 0.0130744 
0.00394738 0.0298603 0.0109944 0.00495576 0.0282003 0.012794 0.00170236 0.0260614 0.012759 
0.00331061 0.0311957 0.012138 0.00714648 0.0261483 0.0133251 0.00745375 0.025506 0.0106779 
0.00077047 0.0274955 0.013588 0.00214013 0.033605 0.0117211 0.0034961 0.0326635 0.0109944 
0.00932619 0.0292972 0.0122932 0.000596481 0.0311783 0.012783 0.0124532 0.0313488 0.012847 
0.0117187 0.0287608 0.0116574 0.00764699 0.0334048 0.0121861 0.00704846 0.033294 0.0107704 
0.0116213 0.0265028 0.0107704 0.000875474 0.0335964 0.0127272 0.0191168 0.0265188 0.0126945 
0.0122035 0.0305669 0.010525 0.0223426 0.0252505 0.0116573 0.0130419 0.0243921 0.0109944 
0.0165537 0.0254822 0.01113 0.0127406 0.0261189 0.0124499 0.0201757 0.0260582 0.0119836 
0.015116 0.0251003 0.0128317 0.0188591 0.0247829 0.0112839 0.0144865 0.0259616 0.0109944 
0.015793 0.0274612 0.0109944 0.0180512 0.0273697 0.0112839 0.014436 0.0290902 0.01113 
0.013121 0.0324946 0.0109944 0.0225412 0.0314052 0.0114587 0.0200042 0.0263868 0.010678 
0.0153162 0.0315025 0.0114587 0.0196265 0.0315371 0.0114587 0.0234009 0.0271616 0.0105965 
0.0165171 0.0291832 0.0120065 0.0135559 0.0274445 0.0107704 0.0184144 0.0292793 0.0119489 
0.0172836 0.0317949 0.010678 0.023214 0.0284214 0.010678 0.0209494 0.0284976 0.011883 
0.013542 0.0306027 0.010678 0.0177232 0.0303181 0.0108754 0.0174747 0.0311032 0.0125542 
0.0143913 0.0273757 0.0120635 0.0198162 0.0332523 0.0130307 0.0198133 0.0336491 0.0107704 
0.023322 0.0331028 0.0124955 0.0232296 0.027322 0.0125614 0.000994456 0.0342893 0.0109944 
0.000875478 0.0361516 0.0108754 0.00274457 0.0342447 0.0107704 0.000875441 0.0379025 0.0108754 
0.00606176 0.0355918 0.010678 0.0114709 0.0406984 0.0121393 0.00787154 0.034969 0.01113 
0.00691485 0.0375336 0.0116573 0.00388055 0.0361986 0.0116574 0.00683059 0.0408475 0.0116573 
0.00954832 0.0366602 0.0109944 0.00397194 0.0393072 0.0114587 0.00926928 0.038639 0.0109944 
0.00128397 0.0399833 0.0112839 0.00526263 0.033836 0.01113 0.00128397 0.0357053 0.0129483 
0.0105091 0.0342373 0.0116574 0.00488957 0.0380211 0.0135096 0.00483014 0.0405309 0.0135726 
0.00198673 0.0380444 0.0125388 0.00872462 0.0400852 0.0105965 0.00867331 0.0392363 0.0129911 
0.00623292 0.0351719 0.0122685 0.00912259 0.0413118 0.010678 0.0129158 0.0343494 0.0108754 
0.00261221 0.0406947 0.0131699 0.0174378 0.0340495 0.011883 0.0147093 0.0338338 0.0109944 
0.0212224 0.0334434 0.0118129 0.0138967 0.039163 0.0130602 0.0181123 0.0367021 0.0109944 
0.0230056 0.033769 0.0109944 0.012814 0.0369153 0.011883 0.0157033 0.0376861 0.0109944 
0.0139928 0.0411818 0.0107704 0.0196608 0.038962 0.011883 0.0203079 0.0357109 0.0114588 
0.0232282 0.040217 0.0107705 0.0152863 0.0357413 0.0109944 0.0173507 0.0382784 0.0107704 
0.022716 0.038289 0.0112839 0.02287 0.0358848 0.01113 0.0178537 0.0407867 0.0108754 
0.022368 0.0402282 0.0129309 0.014404 0.0393616 0.01113 0.0162702 0.039377 0.0107704 
0.0158868 0.0412035 0.01113 0.017063 0.0398567 0.0121307 0.0155658 0.0366984 0.0122342 
0.0143718 0.0409053 0.0122382 0.00587994 0.0488714 0.0120213 0.00336571 0.04993 0.0133711 
0.00763344 0.0427234 0.0131581 0.00395824 0.0461831 0.0122377 0.00874857 0.0483925 0.0125086 
0.00674212 0.0475681 0.0126222 0.00907248 0.0469753 0.0119553 0.00470788 0.043527 0.0128193 
0.00675302 0.0435637 0.0120499 0.00270553 0.0461838 0.0109944 0.0107931 0.047984 0.0114587 
0.00139835 0.0454801 0.0123181 0.000875431 0.0465488 0.0108754 0.0013239 0.0480576 0.0123537 
0.00373198 0.0444802 0.0109944 0.000770437 0.0449096 0.0107704 0.00708544 0.0494094 0.0109944 
0.00173518 0.0428658 0.0116574 0.0113091 0.0447095 0.011883 0.00851926 0.0455633 0.01113 
0.00595133 0.0455581 0.0114587 0.00797635 0.0476128 0.0109944 0.00390778 0.0482713 0.0114587 
0.00612083 0.0478119 0.0108754 0.00861517 0.0431557 0.0112839 0.00562562 0.0433214 0.0108754 
[...]
POINT_DATA 538
FIELD FieldData 7
id 1 538 int
1 2 3 4 5 6 7 8 9 
10 11 12 13 14 15 16 17 18 
19 20 21 22 24 25 26 29 31 
33 34 35 38 39 45 55 56 57 
58 59 60 61 62 63 64 65 66 
67 68 69 70 71 72 73 76 77 
80 81 82 85 90 95 96 106 107 
108 109 110 111 112 113 114 115 116 
117 118 119 120 121 122 124 126 128 
129 131 132 133 134 141 144 155 162 
163 164 165 166 167 168 169 170 171 
172 173 174 175 176 177 178 179 181 
184 187 190 191 192 194 197 198 200 
219 220 222 223 224 225 226 227 228 
229 230 231 232 233 234 235 236 237 
238 239 240 241 242 244 245 248 250 
251 254 262 264 265 270 273 275 276 
279 283 284 285 286 287 288 289 290 
291 292 293 294 295 296 297 298 299 
300 301 302 303 305 306 308 309 310 
317 330 331 332 333 334 335 336 337 
338 339 340 341 342 343 344 346 347 
348 349 351 353 357 359 362 366 368 
375 376 379 380 382 385 386 387 388 
389 390 391 392 393 394 395 396 397 
398 399 400 401 402 403 404 405 406 
408 409 410 411 413 415 416 417 418 
419 421 435 436 437 439 440 441 442 
443 444 445 446 447 448 449 450 451 
453 455 456 457 458 459 460 466 478 
479 497 498 499 500 501 502 503 504 
505 506 507 508 509 510 511 513 514 
515 516 517 522 523 524 535 486 487 
488 489 490 491 492 493 494 495 496 
512 518 519 520 521 525 526 527 528 
529 530 531 532 533 534 536 537 538 
438 452 454 461 462 463 464 465 467 
468 469 470 471 472 473 474 475 476 
477 480 481 482 483 484 485 355 356 
358 360 361 363 364 365 367 369 370 
371 372 373 374 377 378 381 383 384 
407 412 414 420 422 423 424 425 426 
427 428 429 430 431 432 433 434 266 
267 268 269 271 272 274 277 278 280 
281 282 304 307 311 312 313 314 315 
316 318 319 320 321 322 323 324 325 
326 327 328 329 345 350 352 354 207 
208 209 210 211 212 213 214 215 216 
217 218 221 243 246 247 249 252 253 
255 256 257 258 259 260 261 263 142 
143 145 146 147 148 149 150 151 152 
153 154 156 157 158 159 160 161 180 
182 183 185 186 188 189 193 195 196 
199 201 202 203 204 205 206 86 87 
88 89 91 92 93 94 97 98 99 
100 101 102 103 104 105 123 125 127 
130 135 136 137 138 139 140 23 27 
28 30 32 36 37 40 41 42 43 
44 46 47 48 49 50 51 52 53 
54 74 75 78 79 83 84 
type 1 538 int
1 1 1 1 1 1 1 1 1 
1 1 1 1 1 1 1 1 1 
1 1 1 1 1 1 1 1 1 
1 1 1 1 1 1 1 1 1 
1 1 1 1 1 1 1 1 1 
1 1 1 1 1 1 1 1 1 
1 1 1 1 1 1 1 1 1 
1 1 1 1 1 1 1 1 1 
1 1 1 1 1 1 1 1 1 
1 1 1 1 1 1 1 1 1 
1 1 1 1 1 1 1 1 1 
1 1 1 1 1 1 1 1 1 
1 1 1 1 1 1 1 1 1 
1 1 1 1 1 1 1 1 1 
1 1 1 1 1 1 1 1 1 
1 1 1 1 1 1 1 1 1 
1 1 1 1 1 1 1 1 1 
1 1 1 1 1 1 1 1 1 
1 1 1 1 1 1 1 1 1 
1 1 1 1 1 1 1 1 1 
1 1 1 1 1 1 1 1 1 
1 1 1 1 1 1 1 1 1 
1 1 1 1 1 1 1 1 1 
1 1 1 1 1 1 1 1 1 
1 1 1 1 1 1 1 1 1 
1 1 1 1 1 1 1 1 1 
1 1 1 1 1 1 1 1 1 
1 1 1 1 1 1 1 1 1 
1 1 1 1 1 1 1 1 1 
1 1 1 1 1 1 1 1 1 
1 1 1 1 1 1 1 1 1 
1 1 1 1 1 1 1 1 1 
1 1 1 1 1 1 1 1 1 
1 1 1 1 1 1 1 1 1 
1 1 1 1 1 1 1 1 1 
1 1 1 1 1 1 1 1 1 
1 1 1 1 1 1 1 1 1 
1 1 1 1 1 1 1 1 1 
1 1 1 1 1 1 1 1 1 
1 1 1 1 1 1 1 1 1 
1 1 1 1 1 1 1 1 1 
1 1 1 1 1 1 1 1 1 
1 1 1 1 1 1 1 1 1 
1 1 1 1 1 1 1 1 1 
1 1 1 1 1 1 1 1 1 
1 1 1 1 1 1 1 1 1 
1 1 1 1 1 1 1 1 1 
1 1 1 1 1 1 1 1 1 
1 1 1 1 1 1 1 1 1 
1 1 1 1 1 1 1 1 1 
1 1 1 1 1 1 1 1 1 
1 1 1 1 1 1 1 1 1 
1 1 1 1 1 1 1 1 1 
1 1 1 1 1 1 1 1 1 
1 1 1 1 1 1 1 1 1 
1 1 1 1 1 1 1 1 1 
1 1 1 1 1 1 1 1 1 
1 1 1 1 1 1 1 1 1 
1 1 1 1 1 1 1 1 1 
1 1 1 1 1 1 1 
i 3 538 int
0 0 0 0 0 0 0 0 0 
0 0 0 0 0 0 0 0 0 
0 0 0 0 0 0 0 0 0 
0 0 0 0 0 0 0 0 0 
0 0 0 0 0 0 0 0 0 
0 0 0 0 0 0 0 0 0 
0 0 0 0 0 0 0 0 0 
0 0 0 0 0 0 0 0 0 
0 0 0 0 0 0 0 0 0 
0 0 0 0 0 0 0 0 0 
0 0 0 0 0 0 0 0 0 
0 0 0 0 0 0 0 0 0 
0 0 0 0 0 0 0 0 0 
0 0 0 0 0 0 0 0 0 
0 0 0 0 0 0 0 0 0 
0 0 0 0 0 0 0 0 0 
0 0 0 0 0 0 0 0 0 
0 0 0 0 0 0 0 0 0 
0 0 0 0 0 0 0 0 0 
0 0 0 0 0 0 0 0 0 
0 0 0 0 0 0 0 0 0 
0 0 0 0 0 0 0 0 0 
0 0 0 0 0 0 0 0 0 
0 0 0 0 0 0 0 0 0 
0 0 0 0 0 0 0 0 0 
0 0 0 0 0 0 0 0 0 
0 0 0 0 0 0 0 0 0 
0 0 0 0 0 0 0 0 0 
0 0 0 0 0 0 0 0 0 
0 0 0 0 0 0 0 0 0 
0 0 0 0 0 0 0 0 0 
0 0 0 0 0 0 0 0 0 
0 0 0 0 0 0 0 0 0 
0 0 0 0 0 0 0 0 0 
0 0 0 0 0 0 0 0 0 
0 0 0 0 0 0 0 0 0 
0 0 0 0 0 0 0 0 0 
0 0 0 0 0 0 0 0 0 
0 0 0 0 0 0 0 0 0 
0 0 0 0 0 0 0 0 0 
0 0 0 0 0 0 0 0 0 
0 0 0 0 0 0 0 0 0 
0 0 0 0 0 0 0 0 0 
0 0 0 0 0 0 0 0 0 
0 0 0 0 0 0 0 0 0 
0 0 0 0 0 0 0 0 0 
0 0 0 0 0 0 0 0 0 
0 0 0 0 0 0 0 0 0 
0 0 0 0 0 0 0 0 0 
0 0 0 0 0 0 0 0 0 
0 0 0 0 0 0 0 0 0 
0 0 0 0 0 0 0 0 0 
0 0 0 0 0 0 0 0 0 
0 0 0 0 0 0 0 0 0 
0 0 0 0 0 0 0 0 0 
0 0 0 0 0 0 0 0 0 
0 0 0 0 0 0 0 0 0 
0 0 0 0 0 0 0 0 0 
0 0 0 0 0 0 0 0 0 
0 0 0 0 0 0 0 0 0 
0 0 0 0 0 0 0 0 0 
0 0 0 0 0 0 0 0 0 
0 0 0 0 0 0 0 0 0 
0 0 0 0 0 0 0 0 0 
0 0 0 0 0 0 0 0 0 
0 0 0 0 0 0 0 0 0 
0 0 0 0 0 0 0 0 0 
0 0 0 0 0 0 0 0 0 
0 0 0 0 0 0 0 0 0 
0 0 0 0 0 0 0 0 0 
0 0 0 0 0 0 0 0 0 
0 0 0 0 0 0 0 0 0 
0 0 0 0 0 0 0 0 0 
0 0 0 0 0 0 0 0 0 
0 0 0 0 0 0 0 0 0 
0 0 0 0 0 0 0 0 0 
0 0 0 0 0 0 0 0 0 
0 0 0 0 0 0 0 0 0 
0 0 0 0 0 0 0 0 0 
0 0 0 0 0 0 0 0 0 
0 0 0 0 0 0 0 0 0 
0 0 0 0 0 0 0 0 0 
0 0 0 0 0 0 0 0 0 
0 0 0 0 0 0 0 0 0 
0 0 0 0 0 0 0 0 0 
0 0 0 0 0 0 0 0 0 
0 0 0 0 0 0 0 0 0 
0 0 0 0 0 0 0 0 0 
0 0 0 0 0 0 0 0 0 
0 0 0 0 0 0 0 0 0 
0 0 0 0 0 0 0 0 0 
0 0 0 0 0 0 0 0 0 
0 0 0 0 0 0 0 0 0 
0 0 0 0 0 0 0 0 0 
0 0 0 0 0 0 0 0 0 
0 0 0 0 0 0 0 0 0 
0 0 0 0 0 0 0 0 0 
0 0 0 0 0 0 0 0 0 
0 0 0 0 0 0 0 0 0 
0 0 0 0 0 0 0 0 0 
0 0 0 0 0 0 0 0 0 
0 0 0 0 0 0 0 0 0 
0 0 0 0 0 0 0 0 0 
0 0 0 0 0 0 0 0 0 
0 0 0 0 0 0 0 0 0 
0 0 0 0 0 0 0 0 0 
0 0 0 0 0 0 0 0 0 
0 0 0 0 0 0 0 0 0 
0 0 0 0 0 0 0 0 0 
0 0 0 0 0 0 0 0 0 
0 0 0 0 0 0 0 0 0 
0 0 0 0 0 0 0 0 0 
0 0 0 0 0 0 0 0 0 
0 0 0 0 0 0 0 0 0 
0 0 0 0 0 0 0 0 0 
0 0 0 0 0 0 0 0 0 
0 0 0 0 0 0 0 0 0 
0 0 0 0 0 0 0 0 0 
0 0 0 0 0 0 0 0 0 
0 0 0 0 0 0 0 0 0 
0 0 0 0 0 0 0 0 0 
0 0 0 0 0 0 0 0 0 
0 0 0 0 0 0 0 0 0 
0 0 0 0 0 0 0 0 0 
0 0 0 0 0 0 0 0 0 
0 0 0 0 0 0 0 0 0 
0 0 0 0 0 0 0 0 0 
0 0 0 0 0 0 0 0 0 
0 0 0 0 0 0 0 0 0 
0 0 0 0 0 0 0 0 0 
0 0 0 0 0 0 0 0 0 
0 0 0 0 0 0 0 0 0 
0 0 0 0 0 0 0 0 0 
0 0 0 0 0 0 0 0 0 
0 0 0 0 0 0 0 0 0 
0 0 0 0 0 0 0 0 0 
0 0 0 0 0 0 0 0 0 
0 0 0 0 0 0 0 0 0 
0 0 0 0 0 0 0 0 0 
0 0 0 0 0 0 0 0 0 
0 0 0 0 0 0 0 0 0 
0 0 0 0 0 0 0 0 0 
0 0 0 0 0 0 0 0 0 
0 0 0 0 0 0 0 0 0 
0 0 0 0 0 0 0 0 0 
0 0 0 0 0 0 0 0 0 
0 0 0 0 0 0 0 0 0 
0 0 0 0 0 0 0 0 0 
0 0 0 0 0 0 0 0 0 
0 0 0 0 0 0 0 0 0 
0 0 0 0 0 0 0 0 0 
0 0 0 0 0 0 0 0 0 
0 0 0 0 0 0 0 0 0 
0 0 0 0 0 0 0 0 0 
0 0 0 0 0 0 0 0 0 
0 0 0 0 0 0 0 0 0 
0 0 0 0 0 0 0 0 0 
0 0 0 0 0 0 0 0 0 
0 0 0 0 0 0 0 0 0 
0 0 0 0 0 0 0 0 0 
0 0 0 0 0 0 0 0 0 
0 0 0 0 0 0 0 0 0 
0 0 0 0 0 0 0 0 0 
0 0 0 0 0 0 0 0 0 
0 0 0 0 0 0 0 0 0 
0 0 0 0 0 0 0 0 0 
0 0 0 0 0 0 0 0 0 
0 0 0 0 0 0 0 0 0 
0 0 0 0 0 0 0 0 0 
0 0 0 0 0 0 0 0 0 
0 0 0 0 0 0 0 0 0 
0 0 0 0 0 0 0 0 0 
0 0 0 0 0 0 0 0 0 
0 0 0 0 0 0 0 0 0 
0 0 0 0 0 0 0 0 0 
0 0 0 0 0 0 0 0 0 
0 0 0 0 0 0 0 0 0 
0 0 0 0 0 0 0 0 0 
0 0 0 0 0 0 0 0 0 
0 0 0 
v 3 538 double
-0.000355442 9.01918e-05 -3.16514e-05 -0.000417378 0.00139973 1.23218e-11 8.52658e-06 1.41914e-05 4.26618e-06 
-0.000594709 -0.000473557 -1.07679e-05 -5.85147e-06 -7.54275e-06 1.53186e-06 -0.000501619 0.000415109 -6.39868e-06 
2.14504e-05 5.81626e-06 -2.99917e-06 0.0011408 7.40936e-05 1.50201e-11 -9.25082e-07 -5.39594e-06 -3.83289e-07 
3.55077e-05 -6.73906e-07 3.3406e-06 -0.000239463 0.000456503 -2.99559e-12 0.000137923 0.00121638 1.08648e-11 
-0.000458799 0.000380187 1.01626e-05 4.97198e-06 -1.706e-05 -2.43933e-06 -4.53533e-06 -1.93525e-06 -4.43795e-05 
3.03172e-06 -8.18591e-06 3.52303e-06 4.28338e-05 -3.10897e-05 4.78273e-06 -6.21975e-07 -1.84092e-05 1.29417e-06 
-0.000223743 -0.000730278 1.65131e-11 -0.000642032 -0.00038428 0.000306181 -7.21067e-05 -7.28208e-05 7.62561e-05 
-0.000430966 0.000457052 6.32693e-06 6.22197e-06 0.30842 -0.139447 2.98917e-05 -7.55571e-05 4.93263e-05 
-0.000120441 1.48359e-05 -1.18794e-05 1.2091e-06 -7.96513e-07 1.976e-06 -0.000606957 -0.00488023 0.00186093 
0.000126984 -0.000320577 0.000443196 -3.68598e-05 -2.0636e-07 -2.85011e-05 -0.00024099 -8.97943e-06 -2.36113e-05 
-1.2154e-06 -1.2753e-05 -1.7737e-06 -0.000492724 6.68333e-05 -2.26472e-05 0.00117605 -0.00471233 0.000261596 
0.00208243 -0.00334587 -0.000569226 0.00215739 -0.00341884 3.51401e-05 -0.000249404 0.000108817 2.74803e-05 
0.00127042 0.00160271 8.1432e-05 0.022644 0.00280452 7.14736e-05 -0.00756712 -0.00408259 4.54952e-05 
0.132876 -0.0586139 6.08919e-05 -4.02829e-05 -6.08578e-05 -8.71258e-06 -0.000423115 0.000119254 8.44285e-05 
-0.00457943 -0.0046461 -5.70502e-05 -9.73242e-05 4.01429e-06 -3.18421e-06 -0.0201906 0.0172757 5.53839e-12 
0.00176817 -0.000546899 0.000227543 0.000300304 0.00138738 0.000122404 -0.000338999 0.00145326 -0.000190368 
0.060502 0.0103313 -0.460815 0.0958835 -0.104563 0.000227537 -0.00045496 0.0596459 0.0450174 
0.00463832 -0.00142728 4.28227e-06 0.0571493 -0.0559907 -0.000195262 -2.2549e-05 -0.00266406 0.000996938 
-0.000652034 0.0099045 1.43333e-11 -1.09426e-05 0.0385024 -0.00964192 0.0475189 -0.0204192 0.0751215 
-0.000781982 -0.00411915 0.00215083 -0.000126326 -7.30573e-05 -1.33962e-05 -0.00167292 -0.00168652 -0.000109709 
-0.000202823 -0.000182585 -3.58084e-05 0.0036048 -0.00306764 3.04067e-05 -0.031796 -0.00400713 -5.90247e-07 
-0.00421784 -0.00644082 6.75091e-05 0.0108008 0.00265471 -5.00012e-05 -0.00269939 -0.000717718 -1.68638e-05 
0.00433539 0.0023576 5.36864e-05 0.00869349 -0.00510092 7.22644e-06 -2.76633e-06 -6.80177e-06 2.24217e-06 
-1.20656e-07 -3.04357e-05 1.64297e-05 0.00989092 -0.00335073 -5.25663e-06 -3.12609e-06 -1.70244e-05 -9.62081e-06 
0.0267199 0.0758525 4.7602e-06 0.00659386 0.00452179 4.77832e-05 6.48748e-05 0.0504214 -0.037125 
0.00367164 0.00465603 -5.44912e-06 0.00862771 -0.00381418 -0.00344727 -5.6037e-07 0.0497211 -0.0461702 
0.00546233 0.0306465 -0.0499007 0.00431784 -0.00364256 0.000804958 -0.0183818 0.005228 3.7612e-05 
-0.0337516 0.0285263 0.0103622 -0.018716 0.00159617 -0.00977663 -0.0164705 0.000994423 -0.0205932 
0.00919933 0.00679443 1.98256e-12 -0.0199113 -0.00280775 -2.7063e-06 -0.0106119 0.0102248 -0.000276166 
0.000363341 -0.124285 1.63097e-11 -9.04563e-06 0.0577508 -0.047686 -0.0127837 0.00770403 -0.000981013 
0.0127475 -0.018303 -0.0186638 -0.00229783 0.000636659 0.00016512 0.203601 -0.139835 -0.133828 
-0.00455203 0.00109898 0.000104472 0.00566765 -0.00436014 -1.18536e-05 0.0431282 0.00429756 8.12435e-05 
-0.015468 -2.42688e-05 0.00101 0.161105 -0.00277953 -4.23928e-05 0.0232595 0.0173544 -5.12267e-06 
0.0447675 0.0156407 0.000464504 -0.00915641 -0.0120136 0.000289673 0.00599518 -0.00112777 -8.93073e-05 
-0.000235959 0.0300338 1.18553e-12 -0.00476247 0.00798021 -0.000246288 -0.0111275 0.015324 0.00176451 
-0.00270731 0.00596889 -6.28417e-06 -0.00345642 0.0044142 0.000134214 -0.000145389 0.0148654 0.0166611 
0.00357402 -0.000696191 -4.26364e-05 -0.00396813 -0.010141 -0.000748651 0.0216521 0.0188945 -0.00838148 
-4.42759e-05 0.0329963 -0.000117435 0.00654699 0.0017552 -0.00785525 -1.62134e-05 0.0117043 0.0116312 
0.181299 -0.0876909 -0.197223 -0.00969099 -0.00724176 -0.00027266 -0.000688796 -0.000427429 0.000558527 
-6.23859e-05 0.0851973 -0.0126639 0.0015817 -0.00292037 -3.71821e-05 -0.00246847 -0.00613677 -0.00419906 
-3.41991e-05 0.0475029 -5.64406e-07 0.00198508 0.000156012 9.23928e-06 0.0249637 0.0146037 -3.90208e-05 
-0.000176161 2.63564e-05 2.91989e-05 -3.79355e-06 0.0947393 -1.98506e-06 0.000878007 -0.0018581 -0.000115732 
0.00165811 0.000647577 -1.78655e-05 -1.13899e-05 0.0947118 -5.80832e-06 -0.0113667 0.0854014 8.35607e-06 
7.76606e-05 -0.000284295 5.26643e-05 -0.000776835 -0.000297293 0.000101114 -0.000190003 -0.000256134 1.24725e-05 
0.00497169 0.0178645 -0.00388058 0.00429211 -0.0118756 -1.53453e-11 1.45338e-05 0.0947825 3.0249e-05 
0.000908753 -6.26354e-05 -0.000607307 -0.0270374 0.0160445 -0.00707604 -0.000454713 -0.00147334 -6.5245e-05 
0.00292991 -0.00126212 -1.59715e-05 -0.000285541 -4.03776e-05 4.28842e-05 -0.0320792 0.0104262 -0.00583159 
-4.09264e-05 0.0333312 0.0228274 -0.0100804 -0.0190404 -0.000478846 -0.00240598 -0.0318439 -0.011119 
0.00300002 -0.00118447 0.000712898 -0.00026158 8.06942e-05 -4.69248e-05 0.00106872 0.000324846 0.0012993 
-0.000450246 -3.95031e-05 -4.07975e-05 -3.60072e-05 -0.000166384 1.06914e-06 -0.0058604 0.0131721 0.00357347 
0.0785793 -0.0147958 6.24955e-12 2.05735e-05 6.9937e-05 -2.2521e-05 0.00164246 0.00124367 9.88924e-05 
-0.00577697 -0.00724975 0.000165855 -0.00330776 0.000764077 0.00180402 0.00706109 -0.00261229 -0.00506039 
-0.0106932 -0.00306288 -3.10649e-05 0.0268266 0.0334506 -0.000294166 -0.000503384 0.00066136 -0.000440735 
-0.000352052 -0.014517 3.70118e-12 2.84019e-05 0.000586431 -6.48319e-06 -0.00039633 -6.5029e-05 -1.40049e-05 
0.00522885 0.00429403 0.000994565 0.000162274 -0.00136 0.00079434 -0.00121318 -0.00134208 -3.90452e-05 
-0.00661708 0.00441455 -0.000245804 -0.00037675 -0.0147286 6.22669e-12 -2.83095e-05 0.000364421 -4.19376e-05 
-0.00358496 0.00714569 0.000244448 0.0169541 -0.0359694 1.50201e-11 -0.00631102 0.00775286 -0.00135893 
0.000112307 0.000359961 0.000149558 -0.00342012 0.00737639 0.00167449 3.67712e-05 0.00988898 0.0160872 
9.5356e-06 0.0075294 0.000243632 -0.00321741 -0.00301306 -0.000567421 -0.0027185 0.0147637 -0.0160439 
0.00249494 -0.00467255 -0.00230101 -0.00130032 -0.00295104 0.000192131 9.26955e-05 0.000354799 -5.36775e-05 
6.35829e-05 0.000362337 0.000269658 9.34761e-05 0.000353715 -9.61943e-06 -0.000133834 0.000441529 -1.49606e-05 
-0.000137856 -8.86155e-05 5.06694e-06 -0.0002268 0.0003821 -1.84148e-06 -1.72906e-07 0.000119347 9.35145e-06 
-0.00014888 -9.74727e-05 2.09001e-05 -9.44428e-06 4.68884e-05 2.37537e-06 -0.000129503 -8.99293e-05 4.2625e-06 
-4.6255e-05 -1.63492e-05 1.48034e-05 -0.000145131 -0.000127178 -2.59058e-05 9.4877e-05 0.00136078 -1.67406e-05 
-0.000518855 0.000306264 2.23774e-05 -2.07497e-05 6.84227e-05 -5.75781e-05 0.000622157 -0.00117897 -0.000214601 
-3.95678e-05 1.83531e-05 -4.04802e-05 -9.8047e-05 -0.000152966 9.50694e-06 0.0322237 0.0256563 0.000846226 
1.71948e-05 2.24212e-05 -4.76787e-06 2.42045e-05 0.000346063 -4.85864e-05 0.000126045 0.000254731 7.5116e-06 
-1.35651e-05 0.00302273 0.00371678 -4.21924e-05 0.000130006 5.75936e-05 2.40932e-05 1.9196e-05 -1.80778e-07 
-0.000392998 0.000303215 1.5781e-05 -2.47919e-06 7.0679e-05 -2.44679e-05 -0.000486786 0.00125287 0.000535058 
-0.00018316 0.00140121 2.33063e-05 -0.000351878 0.00013983 0.000147463 -9.55012e-07 5.20964e-07 8.40694e-06 
0.00023001 0.00122287 0.000144994 1.30944e-06 0.000136845 2.06125e-06 0.0566584 0.0946383 0.0142212 
0.0194147 0.00236782 -4.81257e-12 9.08593e-05 0.000292141 1.95881e-05 -0.000353548 0.00217532 0.000112763 
-0.0023774 -0.000953658 3.80251e-05 0.000240495 0.00184334 0.000500437 -0.0012707 0.000258894 -0.0106622 
-0.0021312 -0.000352552 0.000226784 -0.00367442 -0.00249586 -7.06913e-05 -0.000374181 0.000648642 -7.73792e-05 
0.000158528 0.000187818 -8.11524e-06 0.000336917 -0.00102512 -0.00042821 -5.84981e-05 0.000300665 -1.54485e-05 
-0.000150825 0.000145769 -2.96914e-05 -6.29885e-05 -0.000131481 -4.21284e-05 -0.0240338 0.0335709 -1.04628e-11 
-2.64363e-05 0.000475201 1.00263e-05 -9.14332e-05 0.000105144 -5.63028e-06 -0.000343212 0.0466056 -9.2029e-12 
-0.000277079 0.000291343 8.43315e-05 -0.000631544 0.000633146 3.35284e-05 -0.000534008 -0.000882182 -0.00113816 
-2.72175e-05 0.000534661 2.40249e-06 -0.0125445 0.0453309 -1.01072e-11 -0.000392337 7.2227e-05 -2.84264e-06 
-0.000498538 0.0031226 1.33612e-11 -0.000267935 0.000479781 4.98036e-05 -0.00012047 0.00055155 8.18413e-06 
0.000555233 -0.0506273 -0.00363078 -8.77251e-06 -0.000124981 0.000160436 0.000202674 -8.19185e-06 3.32805e-06 
1.63726e-05 -0.000205904 -6.70372e-05 -7.44228e-06 0.000633817 -0.000398254 1.13078e-06 0.000138529 -1.9362e-06 
2.17412e-05 0.00016123 1.40077e-06 -4.42251e-06 6.65582e-06 -2.60501e-06 3.26855e-06 0.000181231 -2.93461e-06 
-0.00297771 0.000606024 6.60514e-12 -0.000142005 0.000357408 -1.47136e-05 -1.46961e-05 1.48206e-05 1.20007e-05 
9.79269e-06 7.92333e-05 -3.21946e-06 3.84142e-05 -9.60672e-06 -7.92321e-06 0.000586721 0.000265614 -1.91593e-05 
0.0338977 0.00983113 -4.40503e-12 0.000408551 -1.70226e-05 -2.11794e-05 -0.0290188 0.00693835 -1.18987e-11 
4.4077e-05 0.000193234 6.99952e-06 2.85199e-05 2.60319e-07 -5.23277e-06 2.43015e-06 0.000142531 5.55322e-08 
3.23993e-05 0.000182 -3.17772e-06 5.19196e-05 -0.000114103 9.10125e-05 0.000396924 0.000261733 -0.000199411 
0.000194028 0.000192874 -0.000119239 -0.0762876 -0.00664252 -8.94658e-13 0.000126938 -9.54906e-05 0.000103227 
1.79628e-06 4.99556e-05 1.44835e-05 0.00489137 -0.0195864 1.4428e-11 1.76057e-05 0.000238857 3.37435e-05 
0.000340147 -5.33585e-05 -6.78385e-05 0.000225782 0.00049974 1.49414e-05 0.000191644 0.000629923 1.6525e-05 
6.45038e-05 -9.2529e-05 0.000190191 -0.000111124 0.000410527 -0.000156497 0.000213708 0.000526254 4.69292e-06 
2.78181e-06 -6.67644e-06 3.03814e-05 -4.88896e-05 0.000298481 1.62392e-05 0.000306441 -0.000449143 -3.18367e-06 
4.283e-05 -0.000289575 1.10386e-05 0.000418466 0.000225315 0.000132293 -8.89949e-05 6.50148e-05 4.48925e-05 
-0.000322129 0.0011288 1.37415e-11 -0.00037292 -0.000327041 -1.65524e-05 0.000124196 0.000514227 0.00012355 
-9.25614e-05 0.000685423 4.96131e-05 -4.53495e-05 0.000146298 0.000146292 0.000778612 0.000822621 3.76982e-05 
0.000794219 -0.00502285 0.00752868 0.000621972 -0.000169261 -2.48108e-05 0.00061172 0.000935984 1.56852e-05 
-3.97194e-05 0.000809788 -9.06449e-06 0.000585133 0.00098473 4.67347e-05 0.05084 -0.0113444 -0.0030587 
1.26192e-05 -0.00020366 -1.03436e-05 0.0787562 -0.239169 -0.0309572 0.00858702 -0.0137233 0.0115217 
0.000670003 0.000324957 -0.000162264 -0.00072802 -0.00215077 -3.4654e-05 0.00270428 -0.0809642 0.0387513 
0.480438 -0.0829433 -0.182731 0.00171942 -0.0019597 -0.00277559 0.00276808 -0.00123971 0.000700116 
0.00101496 0.000396499 -0.00048022 -0.000690943 -0.0033857 -1.87714e-05 0.001123 0.000408663 0.000280939 
-0.00185381 0.000508156 0.000848278 0.000121272 -0.000184186 -6.31084e-05 -0.00214824 -2.21938e-05 0.000471487 
0.00245972 -0.00162737 0.000230063 0.000154947 -0.000105414 2.05419e-05 -0.00135557 1.98346e-06 5.89873e-05 
0.000829997 0.000118605 -6.08757e-05 0.000858545 0.000378351 3.7024e-05 -0.000159986 -0.00275281 8.68723e-06 
-0.000161524 7.50313e-05 6.95989e-06 -0.00129391 -0.00277179 0.000169554 -0.00198117 -0.00258938 -0.000538245 
-0.00120354 0.000105532 8.95619e-05 0.00111151 -4.34908e-05 4.89631e-06 0.000721201 2.9022e-05 -0.00013206 
0.00143034 -0.000210739 -0.000577685 0.000914418 -5.94909e-05 1.94949e-05 2.48665e-06 -0.000235098 -0.000490259 
0.00195507 -0.000636652 0.000511936 0.00045166 -0.00114683 -0.000899769 -0.0016418 -0.00500042 0.00335532 
0.0116767 0.0154599 -1.55516e-11 0.00347309 -0.00312344 -2.60943e-05 0.00023098 -0.0152515 0.00764273 
0.00200099 -0.00131263 0.000445616 -0.00454926 -0.00498072 0.00217941 0.00044815 -0.000364245 7.99008e-05 
-0.00478617 -0.00198378 0.00575482 0.000696739 -0.000984167 -6.33937e-05 -0.00793997 -0.0374699 1.12617e-05 
0.00160261 0.000295237 -8.43241e-06 0.00877843 -0.00813679 0.00053343 0.001845 -0.000815385 6.45452e-05 
-0.00724777 0.00113642 4.83904e-05 0.00164133 -0.000575314 -8.6298e-05 -0.00361067 -0.00540767 0.00158102 
3.67589e-05 -0.0179859 1.82146e-05 -0.000628537 -0.0390955 -1.15097e-11 -0.00517301 -0.00676931 -3.41797e-05 
0.00135914 -0.000208605 0.000116268 7.11745e-06 -0.000171332 0.000116012 0.00357356 -0.0158118 0.0028372 
-0.000712826 -0.0107079 -2.35219e-05 -0.00154035 0.00107177 0.000273953 0.0121799 -0.00320642 3.22642e-05 
-0.000567574 -0.00179185 -0.00184503 -0.144812 -0.0233858 0.0362702 -7.5943e-05 0.00157064 -0.00209498 
-9.78556e-05 9.99391e-05 -0.00193047 -0.075974 0.135989 -0.145016 0.000143669 0.000944492 -0.00958479 
0.00203556 0.00229855 -0.00420289 -0.000250709 0.0015188 -0.00299526 -0.00144825 0.00158795 7.06028e-05 
-0.00392695 0.00281553 -0.00796851 -0.000945045 -1.57667e-05 -0.00127304 0.000120948 0.00221102 -0.00707977 
0.000170198 0.00232318 0.000170766 -0.00462824 -0.00724642 -7.81457e-07 0.000711583 0.000326077 -0.000104257 
-0.000178594 0.00246311 0.000430965 -0.00123717 0.00118655 4.27085e-06 0.000791004 0.00304797 -0.000154969 