# vtk DataFile Version 4.0
Generated by LIGGGHTS
ASCII
DATASET POLYDATA
POINTS 538 float
0.0101414 0.00474013 0.0116574 0.00390558 0.00438804 0.0108755 0.00633749 0.0021395 0.0121393 
0.00299792 0.00662002 0.0116574 0.00067805 0.0074957 0.010678 0.00675925 0.00639817 0.0121393 
0.00216379 0.00344791 0.0106779 0.00416301 0.000770491 0.0107705 0.000770509 0.00605314 0.0107712 
0.00215722 0.0014588 0.0114586 0.00544654 0.00437793 0.010678 0.00384224 0.00274655 0.0107705 
0.00796665 0.00412444 0.0107705 0.000770457 0.00306299 0.0107703 0.000770444 0.000770467 0.0130626 
0.00114458 0.00455802 0.0107704 0.00232982 0.000994469 0.0138614 0.000875745 0.00316242 0.0124098 
0.00249338 0.00469636 0.0105965 0.00249536 0.0040718 0.0121938 0.00430183 0.00452872 0.0132144 
0.00885407 0.00507197 0.0138548 0.000996257 0.00643509 0.013387 0.00340671 0.00260211 0.0132334 
0.00983617 0.00164516 0.0114587 0.000770488 0.00525527 0.0120927 0.0101758 0.00740675 0.0125549 
0.00320271 0.0059587 0.0140939 0.00877278 0.000875457 0.0133889 0.0106183 0.000994627 0.0136911 
0.000770548 0.00450666 0.0134397 0.00937044 0.00722936 0.0108755 0.0113918 0.00680631 0.0138443 
0.0120502 0.00580566 0.0127138 0.0120728 0.00591497 0.0107705 0.0125495 0.00128393 0.0112839 
0.0151876 0.0061418 0.01113 0.0225408 0.00367778 0.0114587 0.0164966 0.00393256 0.0114587 
0.0191173 0.00472288 0.0112839 0.0228698 0.0011305 0.01113 0.0144731 0.00077148 0.0107704 
0.0159403 0.00188542 0.0107705 0.0208961 0.000875558 0.0108754 0.0216405 0.0054533 0.010678 
0.0167361 0.000678694 0.010678 0.018617 0.00165756 0.0116574 0.0228697 0.0078788 0.01113 
0.0158513 0.00772893 0.0128235 0.0172589 0.00606504 0.0108755 0.0228684 0.00636288 0.0128064 
0.0133896 0.00407796 0.0116574 0.0198114 0.00739115 0.0114587 0.0230055 0.00191447 0.0130999 
0.0231238 0.0058853 0.0108754 0.0230055 0.00392934 0.0138544 0.0209782 0.00546914 0.0120862 
0.0149223 0.00160993 0.0127864 0.0214597 0.000875492 0.0125332 0.0128615 0.00819171 0.011883 
0.0200305 0.000994936 0.0138012 0.00882749 0.00910509 0.0117989 0.00471067 0.0121247 0.0112839 
0.00787952 0.014443 0.0121393 0.00625852 0.00875684 0.010678 0.00415307 0.0149888 0.0116573 
0.0109027 0.010866 0.0114587 0.00437663 0.0094077 0.0114587 0.00113006 0.0118713 0.01113 
0.00146011 0.00932468 0.0114587 0.0080535 0.0120351 0.010678 0.00077114 0.0137503 0.0107705 
0.00183164 0.0156335 0.0108754 0.00944945 0.0124104 0.0107705 0.00113038 0.0146265 0.0124617 
0.0068261 0.0106294 0.0112839 0.0107157 0.0106917 0.013779 0.000677982 0.0128788 0.0125617 
0.00412554 0.0110624 0.0132525 0.00873546 0.0112865 0.0131509 0.0107855 0.0135468 0.0109944 
0.00257647 0.0128706 0.0125504 0.00618078 0.01196 0.0130172 0.00265877 0.0160328 0.0137662 
0.0103596 0.00841161 0.010678 0.00452835 0.0130064 0.0133784 0.0105885 0.015526 0.0109944 
0.000525539 0.0157614 0.0113665 0.000770428 0.0161273 0.0135732 0.0120389 0.0156112 0.013542 
0.0159367 0.00911211 0.0140946 0.0154445 0.00909679 0.0109944 0.0157118 0.0100029 0.0127957 
0.017283 0.0153959 0.0112839 0.0139254 0.0115985 0.0116574 0.020787 0.0110731 0.0109944 
0.0154701 0.016499 0.0108753 0.0174431 0.00838439 0.01113 0.02254 0.0127254 0.0114587 
0.0188211 0.0103609 0.010678 0.0211177 0.00923613 0.0108755 0.0165928 0.0109842 0.01113 
0.0228698 0.0101787 0.01113 0.0203896 0.0152529 0.011883 0.0158775 0.0145859 0.0127093 
0.0187554 0.0123688 0.0114587 0.0160488 0.0133263 0.01113 0.0230055 0.013211 0.013818 
0.0125654 0.0104599 0.0136289 0.0141514 0.0160057 0.0137856 0.020728 0.0116908 0.0134987 
0.0231242 0.0149107 0.0120349 0.0144176 0.0137091 0.0136973 0.0232295 0.014956 0.0136769 
0.0142351 0.00965763 0.0138897 0.0136059 0.0149722 0.0116573 0.0229988 0.0164593 0.0109944 
0.00151777 0.0167055 0.0122255 0.00598805 0.0167852 0.0109944 0.0101474 0.0169644 0.0133419 
0.000770471 0.0168886 0.0107704 0.0061916 0.0242155 0.0114587 0.00302795 0.0196665 0.0109944 
0.00824931 0.0247412 0.010678 0.00128408 0.0211255 0.0112839 0.00695075 0.0212664 0.0108754 
0.00427576 0.0222605 0.0112839 0.00113028 0.0187203 0.01113 0.0024837 0.0172622 0.0108754 
0.00512275 0.0200052 0.01113 0.00982057 0.0203478 0.0107705 0.0103656 0.0187981 0.0108755 
0.00380176 0.0233349 0.0135675 0.00904005 0.0167475 0.0107705 0.000782067 0.0232283 0.0107705 
0.00600491 0.0213843 0.0124841 0.0032007 0.0207749 0.0126368 0.00779757 0.01884 0.011883 
0.00423895 0.0179143 0.011951 0.00911479 0.0226513 0.0118829 0.00495485 0.019734 0.0136536 
0.000994909 0.0238738 0.0124464 0.00422036 0.017847 0.0140043 0.00507878 0.0217683 0.0139366 
0.00565132 0.0229127 0.0130639 0.00860476 0.0237559 0.0141367 0.00792748 0.0248841 0.0126874 
0.0110495 0.0245877 0.0109944 0.00295417 0.0244623 0.0112839 0.0100139 0.0248262 0.0137644 
0.0114016 0.0229533 0.010678 0.000875436 0.0248808 0.0108754 0.011918 0.0173536 0.0112838 
0.0158947 0.0167348 0.0129793 0.012469 0.0185615 0.0128517 0.0132462 0.017112 0.0129693 
0.0172432 0.0178047 0.01113 0.014764 0.0221995 0.0109944 0.0149058 0.0243712 0.0109944 
0.0231243 0.0228449 0.0108755 0.0194244 0.0188275 0.0112839 0.0120902 0.0202604 0.0114587 
0.016012 0.0232012 0.0123918 0.0182396 0.0217935 0.0107703 0.0178406 0.0236165 0.01113 
0.0187722 0.0169426 0.010678 0.0233384 0.0214133 0.0105965 0.0223399 0.0189411 0.0116574 
0.0144076 0.018487 0.0114821 0.0165322 0.021904 0.0107705 0.0163041 0.0194174 0.0107702 
0.0206362 0.022037 0.011883 0.0145275 0.0207742 0.0123613 0.0231239 0.0168328 0.0128224 
0.0142245 0.0205088 0.010678 0.0173398 0.0205499 0.0129348 0.0154058 0.0220977 0.0138866 
0.0174554 0.024903 0.0127561 0.018349 0.0233133 0.0131704 0.0231246 0.0211322 0.0126569 
0.0230046 0.023052 0.0131639 0.0093775 0.0265367 0.0116573 0.00945986 0.0287956 0.0107705 
0.0074705 0.0288164 0.0112839 0.00851706 0.0323982 0.01113 0.00128483 0.0317406 0.0112838 
0.00324252 0.0275042 0.0112839 0.000994444 0.0277455 0.0109944 0.00509666 0.0289369 0.0108755 
0.00583273 0.0312312 0.0116573 0.00574258 0.0269167 0.0112839 0.0106867 0.0317648 0.01113 
0.00921749 0.0304212 0.0108755 0.00165823 0.0293691 0.0129832 0.00423989 0.0258127 0.0130495 
0.00342055 0.0297574 0.0109944 0.00416871 0.0303513 0.0137132 0.00151909 0.0261467 0.0122914 
0.00321062 0.0311984 0.0121675 0.00709744 0.0266152 0.013259 0.00736584 0.0258651 0.010678 
0.000770481 0.0272166 0.0136723 0.00212986 0.031736 0.0128833 0.00335508 0.0326474 0.0109944 
0.00853435 0.0282939 0.0132752 0.000596495 0.0313582 0.0129915 0.0117462 0.0316582 0.0132964 
0.0116811 0.0292139 0.0116573 0.00719127 0.0331494 0.0122707 0.00685366 0.0332489 0.0107704 
0.0116026 0.026955 0.0107705 0.000875465 0.0332592 0.0127635 0.0184078 0.0252453 0.0139346 
0.0120506 0.0310434 0.010525 0.022342 0.0251315 0.0116574 0.0127566 0.0256385 0.0109944 
0.0167609 0.0258495 0.01113 0.0120021 0.026608 0.0129833 0.0204851 0.0261582 0.0126332 
0.0152862 0.0254411 0.0127933 0.0191602 0.0256319 0.011284 0.014626 0.0265673 0.0109944 
0.0161663 0.0278846 0.0109944 0.0185614 0.028213 0.0112839 0.0144153 0.0290803 0.01113 
0.0127355 0.032318 0.0109944 0.0225411 0.0315261 0.0114587 0.0201408 0.0272193 0.0106778 
0.015027 0.0315747 0.0114587 0.019637 0.0311013 0.0114587 0.0234033 0.0268138 0.0105965 
0.0162515 0.0294896 0.0123837 0.0131297 0.0274784 0.0107705 0.0181198 0.0298253 0.0124782 
0.0170155 0.0316544 0.010678 0.0233221 0.028083 0.0106778 0.0215004 0.028502 0.0124283 
0.0132392 0.0308115 0.0123459 0.0174267 0.0301635 0.0108755 0.0166562 0.0313727 0.0132818 
0.0138173 0.0260997 0.0138039 0.0184693 0.0318328 0.013343 0.0196958 0.033223 0.0107705 
0.023322 0.0332237 0.0124954 0.0232279 0.0266845 0.0133 0.000995271 0.0339827 0.0109957 
0.000875549 0.0359774 0.0108755 0.00272174 0.034281 0.0107705 0.000875506 0.0377284 0.0108755 
0.00602778 0.0353474 0.010678 0.0116236 0.0406275 0.0121393 0.00794276 0.0347643 0.01113 
0.00693942 0.037311 0.0116574 0.00378954 0.0362746 0.0116573 0.00680838 0.0406237 0.0116573 
0.00941701 0.0363483 0.0109944 0.00395699 0.0393804 0.0114587 0.00936674 0.0385525 0.0109944 
0.00128398 0.0399894 0.0112839 0.0050915 0.0338666 0.01113 0.00128511 0.0353743 0.0129099 
0.0101113 0.0340388 0.0127241 0.00494759 0.0380597 0.013458 0.00494069 0.0403066 0.0137022 
0.00185343 0.0380459 0.0125977 0.00942807 0.0400919 0.0105965 0.00873942 0.0402559 0.0136337 
0.00451876 0.0360024 0.0140677 0.00919191 0.0413418 0.010678 0.0118407 0.0339574 0.0108754 
0.00280897 0.040886 0.0132244 0.0173835 0.0339062 0.011883 0.0142416 0.0339113 0.0109944 
0.0211683 0.0335633 0.0116861 0.0133174 0.0385216 0.0134757 0.0179884 0.0369304 0.0109944 
0.0230051 0.03389 0.0109944 0.0128773 0.0363082 0.011883 0.0150224 0.0380082 0.0109944 
0.0141373 0.0411551 0.0107705 0.0197458 0.0390651 0.011883 0.0201237 0.0357716 0.0114587 
0.0232047 0.0400739 0.0107705 0.0156311 0.036009 0.0109944 0.0173853 0.0385751 0.0107705 
0.022716 0.0380759 0.0123625 0.0228689 0.0360058 0.01113 0.0179592 0.0409102 0.0108754 
0.0222799 0.0404759 0.0131653 0.0148319 0.0399717 0.0120872 0.01608 0.0394034 0.0107704 
0.0160887 0.041588 0.01113 0.0170029 0.0399767 0.0120068 0.0141625 0.0383917 0.0122775 
0.0142606 0.041587 0.0129096 0.00578803 0.0493743 0.0122472 0.00321396 0.049249 0.0138427 
0.00697604 0.0435225 0.0136937 0.00289484 0.0433863 0.0136848 0.00837171 0.0486532 0.0124744 
0.0058102 0.0477725 0.0127278 0.0105184 0.0466657 0.0131344 0.00476789 0.0435348 0.0128538 
0.00666652 0.0437297 0.0120904 0.00288855 0.0462203 0.0109944 0.0104225 0.047852 0.0114587 
0.00152152 0.04553 0.0122636 0.000875458 0.0466034 0.0108754 0.00128396 0.0480491 0.0124265 
0.00371957 0.0444132 0.0109944 0.00077049 0.0449628 0.0107705 0.00715636 0.0493595 0.0112318 
0.00165746 0.0428832 0.0116573 0.0111192 0.0446111 0.0118829 0.00833364 0.0454791 0.01113 
0.00577307 0.0456723 0.0114596 0.00799898 0.0475727 0.0109944 0.0038201 0.0484419 0.0114587 
0.00601893 0.0479188 0.0108754 0.00842954 0.0430498 0.0112839 0.00562249 0.0433514 0.0108754 
[...]
POINT_DATA 538
FIELD FieldData 7
id 1 538 int
1 2 3 4 5 6 7 8 9 
10 11 12 13 14 15 16 17 18 
19 20 21 22 24 25 26 29 31 
33 34 35 38 39 45 55 56 57 
58 59 60 61 62 63 64 65 66 
67 68 69 70 71 72 73 76 77 
80 81 82 85 90 95 96 106 107 
108 109 110 111 112 113 114 115 116 
117 118 119 120 121 122 124 126 128 
129 131 132 133 134 141 144 155 162 
163 164 165 166 167 168 169 170 171 
172 173 174 175 176 177 178 179 181 
184 187 190 191 192 194 197 198 200 
219 220 222 223 224 225 226 227 228 
229 230 231 232 233 234 235 236 237 
238 239 240 241 242 244 245 248 250 
251 254 262 264 265 270 273 275 276 
279 283 284 285 286 287 288 289 290 
291 292 293 294 295 296 297 298 299 
300 301 302 303 305 306 308 309 310 
317 330 331 332 333 334 335 336 337 
338 339 340 341 342 343 344 346 347 
348 349 351 353 357 359 362 366 368 
375 376 379 380 382 385 386 387 388 
389 390 391 392 393 394 395 396 397 
398 399 400 401 402 403 404 405 406 
408 409 410 411 413 415 416 417 418 
419 421 435 436 437 439 440 441 442 
443 444 445 446 447 448 449 450 451 
453 455 456 457 458 459 460 466 478 
479 497 498 499 500 501 502 503 504 
505 506 507 508 509 510 511 513 514 
515 516 517 522 523 524 535 486 487 
488 489 490 491 492 493 494 495 496 
512 518 519 520 521 525 526 527 528 
529 530 531 532 533 534 536 537 538 
438 452 454 461 462 463 464 465 467 
468 469 470 471 472 473 474 475 476 
477 480 481 482 483 484 485 355 356 
358 360 361 363 364 365 367 369 370 
371 372 373 374 377 378 381 383 384 
407 412 414 420 422 423 424 425 426 
427 428 429 430 431 432 433 434 266 
267 268 269 271 272 274 277 278 280 
281 282 304 307 311 312 313 314 315 
316 318 319 320 321 322 323 324 325 
326 327 328 329 345 350 352 354 207 
208 209 210 211 212 213 214 215 216 
217 218 221 243 246 247 249 252 253 
255 256 257 258 259 260 261 263 142 
143 145 146 147 148 149 150 151 152 
153 154 156 157 158 159 160 161 180 
182 183 185 186 188 189 193 195 196 
199 201 202 203 204 205 206 86 87 
88 89 91 92 93 94 97 98 99 
100 101 102 103 104 105 123 125 127 
130 135 136 137 138 139 140 23 27 
28 30 32 36 37 40 41 42 43 
44 46 47 48 49 50 51 52 53 
54 74 75 78 79 83 84 
type 1 538 int
1 1 1 1 1 1 1 1 1 
1 1 1 1 1 1 1 1 1 
1 1 1 1 1 1 1 1 1 
1 1 1 1 1 1 1 1 1 
1 1 1 1 1 1 1 1 1 
1 1 1 1 1 1 1 1 1 
1 1 1 1 1 1 1 1 1 
1 1 1 1 1 1 1 1 1 
1 1 1 1 1 1 1 1 1 
1 1 1 1 1 1 1 1 1 
1 1 1 1 1 1 1 1 1 
1 1 1 1 1 1 1 1 1 
1 1 1 1 1 1 1 1 1 
1 1 1 1 1 1 1 1 1 
1 1 1 1 1 1 1 1 1 
1 1 1 1 1 1 1 1 1 
1 1 1 1 1 1 1 1 1 
1 1 1 1 1 1 1 1 1 
1 1 1 1 1 1 1 1 1 
1 1 1 1 1 1 1 1 1 
1 1 1 1 1 1 1 1 1 
1 1 1 1 1 1 1 1 1 
1 1 1 1 1 1 1 1 1 
1 1 1 1 1 1 1 1 1 
1 1 1 1 1 1 1 1 1 
1 1 1 1 1 1 1 1 1 
1 1 1 1 1 1 1 1 1 
1 1 1 1 1 1 1 1 1 
1 1 1 1 1 1 1 1 1 
1 1 1 1 1 1 1 1 1 
1 1 1 1 1 1 1 1 1 
1 1 1 1 1 1 1 1 1 
1 1 1 1 1 1 1 1 1 
1 1 1 1 1 1 1 1 1 
1 1 1 1 1 1 1 1 1 
1 1 1 1 1 1 1 1 1 
1 1 1 1 1 1 1 1 1 
1 1 1 1 1 1 1 1 1 
1 1 1 1 1 1 1 1 1 
1 1 1 1 1 1 1 1 1 
1 1 1 1 1 1 1 1 1 
1 1 1 1 1 1 1 1 1 
1 1 1 1 1 1 1 1 1 
1 1 1 1 1 1 1 1 1 
1 1 1 1 1 1 1 1 1 
1 1 1 1 1 1 1 1 1 
1 1 1 1 1 1 1 1 1 
1 1 1 1 1 1 1 1 1 
1 1 1 1 1 1 1 1 1 
1 1 1 1 1 1 1 1 1 
1 1 1 1 1 1 1 1 1 
1 1 1 1 1 1 1 1 1 
1 1 1 1 1 1 1 1 1 
1 1 1 1 1 1 1 1 1 
1 1 1 1 1 1 1 1 1 
1 1 1 1 1 1 1 1 1 
1 1 1 1 1 1 1 1 1 
1 1 1 1 1 1 1 1 1 
1 1 1 1 1 1 1 1 1 
1 1 1 1 1 1 1 
i 3 538 int
0 0 0 0 0 0 0 0 0 
0 0 0 0 0 0 0 0 0 
0 0 0 0 0 0 0 0 0 
0 0 0 0 0 0 0 0 0 
0 0 0 0 0 0 0 0 0 
0 0 0 0 0 0 0 0 0 
0 0 0 0 0 0 0 0 0 
0 0 0 0 0 0 0 0 0 
0 0 0 0 0 0 0 0 0 
0 0 0 0 0 0 0 0 0 
0 0 0 0 0 0 0 0 0 
0 0 0 0 0 0 0 0 0 
0 0 0 0 0 0 0 0 0 
0 0 0 0 0 0 0 0 0 
0 0 0 0 0 0 0 0 0 
0 0 0 0 0 0 0 0 0 
0 0 0 0 0 0 0 0 0 
0 0 0 0 0 0 0 0 0 
0 0 0 0 0 0 0 0 0 
0 0 0 0 0 0 0 0 0 
0 0 0 0 0 0 0 0 0 
0 0 0 0 0 0 0 0 0 
0 0 0 0 0 0 0 0 0 
0 0 0 0 0 0 0 0 0 
0 0 0 0 0 0 0 0 0 
0 0 0 0 0 0 0 0 0 
0 0 0 0 0 0 0 0 0 
0 0 0 0 0 0 0 0 0 
0 0 0 0 0 0 0 0 0 
0 0 0 0 0 0 0 0 0 
0 0 0 0 0 0 0 0 0 
0 0 0 0 0 0 0 0 0 
0 0 0 0 0 0 0 0 0 
0 0 0 0 0 0 0 0 0 
0 0 0 0 0 0 0 0 0 
0 0 0 0 0 0 0 0 0 
0 0 0 0 0 0 0 0 0 
0 0 0 0 0 0 0 0 0 
0 0 0 0 0 0 0 0 0 
0 0 0 0 0 0 0 0 0 
0 0 0 0 0 0 0 0 0 
0 0 0 0 0 0 0 0 0 
0 0 0 0 0 0 0 0 0 
0 0 0 0 0 0 0 0 0 
0 0 0 0 0 0 0 0 0 
0 0 0 0 0 0 0 0 0 
0 0 0 0 0 0 0 0 0 
0 0 0 0 0 0 0 0 0 
0 0 0 0 0 0 0 0 0 
0 0 0 0 0 0 0 0 0 
0 0 0 0 0 0 0 0 0 
0 0 0 0 0 0 0 0 0 
0 0 0 0 0 0 0 0 0 
0 0 0 0 0 0 0 0 0 
0 0 0 0 0 0 0 0 0 
0 0 0 0 0 0 0 0 0 
0 0 0 0 0 0 0 0 0 
0 0 0 0 0 0 0 0 0 
0 0 0 0 0 0 0 0 0 
0 0 0 0 0 0 0 0 0 
0 0 0 0 0 0 0 0 0 
0 0 0 0 0 0 0 0 0 
0 0 0 0 0 0 0 0 0 
0 0 0 0 0 0 0 0 0 
0 0 0 0 0 0 0 0 0 
0 0 0 0 0 0 0 0 0 
0 0 0 0 0 0 0 0 0 
0 0 0 0 0 0 0 0 0 
0 0 0 0 0 0 0 0 0 
0 0 0 0 0 0 0 0 0 
0 0 0 0 0 0 0 0 0 
0 0 0 0 0 0 0 0 0 
0 0 0 0 0 0 0 0 0 
0 0 0 0 0 0 0 0 0 
0 0 0 0 0 0 0 0 0 
0 0 0 0 0 0 0 0 0 
0 0 0 0 0 0 0 0 0 
0 0 0 0 0 0 0 0 0 
0 0 0 0 0 0 0 0 0 
0 0 0 0 0 0 0 0 0 
0 0 0 0 0 0 0 0 0 
0 0 0 0 0 0 0 0 0 
0 0 0 0 0 0 0 0 0 
0 0 0 0 0 0 0 0 0 
0 0 0 0 0 0 0 0 0 
0 0 0 0 0 0 0 0 0 
0 0 0 0 0 0 0 0 0 
0 0 0 0 0 0 0 0 0 
0 0 0 0 0 0 0 0 0 
0 0 0 0 0 0 0 0 0 
0 0 0 0 0 0 0 0 0 
0 0 0 0 0 0 0 0 0 
0 0 0 0 0 0 0 0 0 
0 0 0 0 0 0 0 0 0 
0 0 0 0 0 0 0 0 0 
0 0 0 0 0 0 0 0 0 
0 0 0 0 0 0 0 0 0 
0 0 0 0 0 0 0 0 0 
0 0 0 0 0 0 0 0 0 
0 0 0 0 0 0 0 0 0 
0 0 0 0 0 0 0 0 0 
0 0 0 0 0 0 0 0 0 
0 0 0 0 0 0 0 0 0 
0 0 0 0 0 0 0 0 0 
0 0 0 0 0 0 0 0 0 
0 0 0 0 0 0 0 0 0 
0 0 0 0 0 0 0 0 0 
0 0 0 0 0 0 0 0 0 
0 0 0 0 0 0 0 0 0 
0 0 0 0 0 0 0 0 0 
0 0 0 0 0 0 0 0 0 
0 0 0 0 0 0 0 0 0 
0 0 0 0 0 0 0 0 0 
0 0 0 0 0 0 0 0 0 
0 0 0 0 0 0 0 0 0 
0 0 0 0 0 0 0 0 0 
0 0 0 0 0 0 0 0 0 
0 0 0 0 0 0 0 0 0 
0 0 0 0 0 0 0 0 0 
0 0 0 0 0 0 0 0 0 
0 0 0 0 0 0 0 0 0 
0 0 0 0 0 0 0 0 0 
0 0 0 0 0 0 0 0 0 
0 0 0 0 0 0 0 0 0 
0 0 0 0 0 0 0 0 0 
0 0 0 0 0 0 0 0 0 
0 0 0 0 0 0 0 0 0 
0 0 0 0 0 0 0 0 0 
0 0 0 0 0 0 0 0 0 
0 0 0 0 0 0 0 0 0 
0 0 0 0 0 0 0 0 0 
0 0 0 0 0 0 0 0 0 
0 0 0 0 0 0 0 0 0 
0 0 0 0 0 0 0 0 0 
0 0 0 0 0 0 0 0 0 
0 0 0 0 0 0 0 0 0 
0 0 0 0 0 0 0 0 0 
0 0 0 0 0 0 0 0 0 
0 0 0 0 0 0 0 0 0 
0 0 0 0 0 0 0 0 0 
0 0 0 0 0 0 0 0 0 
0 0 0 0 0 0 0 0 0 
0 0 0 0 0 0 0 0 0 
0 0 0 0 0 0 0 0 0 
0 0 0 0 0 0 0 0 0 
0 0 0 0 0 0 0 0 0 
0 0 0 0 0 0 0 0 0 
0 0 0 0 0 0 0 0 0 
0 0 0 0 0 0 0 0 0 
0 0 0 0 0 0 0 0 0 
0 0 0 0 0 0 0 0 0 
0 0 0 0 0 0 0 0 0 
0 0 0 0 0 0 0 0 0 
0 0 0 0 0 0 0 0 0 
0 0 0 0 0 0 0 0 0 
0 0 0 0 0 0 0 0 0 
0 0 0 0 0 0 0 0 0 
0 0 0 0 0 0 0 0 0 
0 0 0 0 0 0 0 0 0 
0 0 0 0 0 0 0 0 0 
0 0 0 0 0 0 0 0 0 
0 0 0 0 0 0 0 0 0 
0 0 0 0 0 0 0 0 0 
0 0 0 0 0 0 0 0 0 
0 0 0 0 0 0 0 0 0 
0 0 0 0 0 0 0 0 0 
0 0 0 0 0 0 0 0 0 
0 0 0 0 0 0 0 0 0 
0 0 0 0 0 0 0 0 0 
0 0 0 0 0 0 0 0 0 
0 0 0 0 0 0 0 0 0 
0 0 0 0 0 0 0 0 0 
0 0 0 0 0 0 0 0 0 
0 0 0 0 0 0 0 0 0 
0 0 0 0 0 0 0 0 0 
0 0 0 0 0 0 0 0 0 
0 0 0 0 0 0 0 0 0 
0 0 0 0 0 0 0 0 0 
0 0 0 0 0 0 0 0 0 
0 0 0 
v 3 538 double
-0.00887083 -0.00210635 0.000112896 -0.0167925 0.0197553 0.00302976 0.00581125 0.000541309 0.000477685 
-0.0198567 0.020718 -0.00204719 0.00235461 0.0289818 5.27625e-05 -0.000888398 0.0155877 -0.000170955 
0.00047538 -0.000939122 0.00117622 0.0123897 0.000676429 -3.93297e-05 0.000358449 0.0254511 -0.061448 
0.00544238 0.0001156 0.00340659 -0.0137595 0.00556696 0.000249438 0.0071179 0.0166153 4.93912e-05 
-0.00718889 0.00169943 -0.00172327 0.000268868 -0.00547963 -0.000339851 0.00155341 0.00102637 0.00374817 
-0.0217664 0.00767464 -0.000439777 0.00899124 -0.00022692 0.00562115 1.471e-05 -0.0156719 0.00190874 
-0.0240918 0.0218061 -0.000188554 -0.0262812 0.0336696 -0.00575461 -0.00292215 0.00174425 -0.0309519 
0.0392883 -0.0256931 -0.0809988 0.000314214 -0.0124596 0.0090537 0.0319217 -0.0149265 -0.00307958 
0.00800038 -0.00443391 -8.45762e-05 -0.000352404 0.075356 -0.0308142 -0.000605477 0.0121192 -0.0297533 
-0.0102125 -0.00424098 -0.00931323 0.00141646 -0.0110845 -0.00760982 0.0570052 -0.0115783 -0.0193961 
0.000428412 -0.01714 -0.0827025 0.0281756 -0.0103793 7.49046e-05 0.0246639 0.00874165 -0.0302244 
-0.0109677 0.00713092 -0.00402553 -0.00679563 0.0055842 -2.35469e-05 0.00841914 -0.00016226 2.09106e-05 
-0.0103233 0.0101155 0.00150235 -0.00467349 0.00695256 -2.14874e-06 0.000606927 0.0148654 -7.34306e-05 
0.00529671 0.000994676 0.000268861 -0.000843993 -0.00288925 0.000124749 0.0122625 -0.00921548 -0.0161558 
0.0349598 0.011706 -0.000311285 -0.016384 0.000682529 5.56487e-05 -0.0420901 0.000161331 0.000121057 
0.00653405 -0.00969812 0.000355113 -0.0153232 -0.00048047 -0.000173651 -0.00246892 0.0108742 -0.000485706 
0.030316 -0.00183364 -0.000639923 -0.029274 0.0127401 -1.12413e-11 -0.0179236 0.00576475 -0.0065053 
-0.00680518 0.00475813 -8.09239e-05 -0.00277435 -0.0166743 -3.36838e-05 -5.83296e-05 0.00544398 -0.00305902 
-9.4376e-05 -0.0130705 0.000196106 -2.24156e-05 0.0122278 -0.00144522 0.0102862 -0.00832408 -0.0011018 
0.0257771 0.0163553 -0.0421791 -0.00512502 -0.000110389 -0.00369983 0.00916105 0.00391245 0.000193858 
0.0436873 -0.00677141 -0.0411378 0.0136965 -0.0040861 -0.0764821 0.0126434 0.00613322 5.72225e-06 
7.5007e-05 0.0120661 0.000301978 0.00134397 0.00112202 -1.36631e-11 0.000347266 0.00660501 0.000440809 
0.0138489 0.00749688 0.000659251 0.01378 0.0024382 -0.000125812 -0.000619532 0.0212677 -0.000724149 
0.0129104 0.0241093 0.000403845 0.00541424 0.0182594 -0.000113673 0.000106515 0.00846279 -1.05508e-11 
-0.00155173 -0.00113474 -0.000354093 0.00845178 0.00871206 1.73863e-05 -0.00260985 -0.0332631 -0.0219235 
0.00764684 0.0132494 -5.64018e-05 -0.00395758 -0.0136124 -0.00226597 -0.00027123 -0.0302047 0.0351172 
-0.0109746 0.039467 -0.0379272 -0.00333111 -0.0146575 -0.0728211 0.0042102 -0.0273222 -1.28474e-05 
0.00415844 0.00591415 0.00344892 0.00604428 0.00873264 0.00307676 0.00691397 0.0360935 -0.00855303 
0.0206199 -0.0158786 -1.18852e-11 0.00470673 0.00764314 0.0014268 0.0139365 -0.0281346 -0.000405705 
0.00770612 0.0110533 0.0338098 0.00146943 -0.014638 0.00458188 -0.0105388 -0.024851 -0.00231621 
0.0219372 -0.0089581 0.00808383 0.016784 -0.00468271 0.000925872 0.0173255 -0.00156679 0.0138563 
-0.0226443 0.00779499 0.00107058 0.0208969 -0.00664589 5.39572e-05 -0.0163926 -0.0145996 0.000115395 
-0.0574683 0.00576844 -0.00410888 0.00962766 0.0115932 1.42143e-05 -0.0140248 -0.0162888 -0.000250518 
-0.0825016 -0.0138473 1.33612e-11 -0.0027251 -0.0123172 1.89771e-07 0.0170228 -0.0239961 0.00019196 
-0.000991179 -0.0148856 2.62902e-05 -0.0209178 0.0248766 -5.9909e-05 -0.00525326 -0.0431738 -0.0103171 
-0.00952219 0.0181402 -0.000161407 0.0602052 -0.0465165 2.30762e-05 0.00613221 0.0120561 -0.0104006 
-0.0140511 0.0117863 -0.0135926 0.00247792 -0.0229363 -0.0116044 0.00460242 -0.031954 -0.0306806 
0.00638181 -0.014686 -0.0237512 0.0297391 -0.0611309 -0.0267532 -0.000263238 0.0118792 -0.0234427 
-0.0270906 -0.0323669 -0.0558891 -0.0109285 -0.0421931 0.00104986 0.00196297 0.0022286 0.000122121 
-0.0031766 -0.0134488 0.00172422 0.00358417 0.00426682 -1.23221e-06 0.00473196 0.00173273 0.0149655 
0.000623471 0.00122077 0.00062538 -0.0018794 -0.0152572 0.000122326 -0.0059295 0.0153295 -0.000117804 
-0.00146641 7.01748e-05 8.02747e-12 0.000626919 0.0154212 4.48499e-06 0.0303218 0.00797327 0.000962032 
-0.0177088 0.00178474 -0.00910236 0.00273615 0.00544342 1.68373e-05 -0.0123783 -0.000629391 0.000111758 
0.0237842 0.0227711 0.000114147 0.0175503 0.00527315 -3.37021e-06 0.0110513 0.00459744 -5.10731e-05 
-0.0239884 0.019035 -0.045466 -0.018649 0.0137086 -1.40667e-11 0.00166928 -0.00378071 -6.07586e-12 
0.0194967 0.0353763 -0.00447771 -0.0258397 0.0322314 -0.00949412 0.00850407 -0.0061445 -9.24794e-05 
0.0109997 0.0110569 -0.0450822 0.0149583 -0.0034982 -0.00346598 -0.000139285 -0.0154766 -0.10358 
0.0069958 -0.0586073 -0.0246527 -0.00287774 -0.0146526 -0.0460133 -0.0426587 0.0179475 -0.0332998 
-0.0248706 0.0168587 0.0210465 -0.0291009 0.0274121 -0.0305525 0.000835345 -0.00659484 -0.00909355 
0.0183932 0.0112137 -1.38836e-06 -0.000626192 0.0136109 -0.000225411 0.0387629 0.00510013 -0.00489431 
0.00732882 0.0026378 5.53839e-12 -0.0022072 -0.00736263 0.00390003 -0.00727779 -0.0146385 0.000569096 
-0.0275822 0.0366472 -0.0184485 0.0185259 0.0379439 -0.0490575 0.0394103 -0.00571458 -0.0350671 
0.00217762 0.00805881 -6.58633e-05 -0.0402553 0.0221985 0.00247109 -0.00693371 -0.00229085 -2.59622e-12 
-7.2996e-05 -0.00220841 5.42531e-12 0.00187893 0.00748607 -3.05582e-05 -0.0359519 0.0293423 -7.30827e-06 
-0.0285609 0.0203888 -0.00379206 0.00195491 -0.00501838 -0.000643732 -0.0164716 -0.010328 0.0024287 
6.4765e-05 -0.000754133 1.6917e-11 -0.000516495 -0.0029923 1.17655e-11 0.000549441 0.00297096 5.53212e-05 
-0.0256808 0.0346214 -0.0355259 0.00773952 0.0063516 2.23466e-12 0.0033049 0.00994594 0.00288442 
-0.0003366 0.00767502 -0.00021101 -0.0251528 0.0199335 0.00611159 0.00114208 0.00144741 -0.000366294 
-0.0394894 -7.19443e-05 1.33612e-11 -0.000301766 0.0117988 0.00734008 -0.0383863 0.0292705 -0.0981196 
0.015304 -0.0476522 -0.0162507 0.0341235 -0.0415654 -0.012329 -0.000952736 0.00406275 0.000362807 
0.012181 -0.00124466 -0.0156458 0.000853145 -0.00211224 5.76747e-05 0.0127672 0.000499249 -0.000229023 
0.0132038 0.0115331 5.48557e-06 0.0052293 -0.0377114 0.000481063 0.00739195 -0.0047668 -0.00262993 
0.0189851 -0.00117256 0.000103861 0.00101963 -0.0357871 0.00203354 0.00187167 -0.008885 -7.57441e-05 
-0.00189963 0.000610177 -0.00306952 0.015705 0.0083188 -4.99215e-05 0.0140548 -0.00911242 -1.23214e-05 
-0.00641047 0.00293739 -8.19572e-09 0.0164537 -0.0153804 -0.016795 -0.00233492 0.0218471 -0.00663181 
0.00112096 -0.00982484 -0.00064694 0.0395303 -0.0602159 0.00979853 0.0395714 -0.0238228 0.00371449 
0.0516749 -0.021102 0.0202436 0.000680357 -0.00847195 0.00747017 -0.00107919 0.00253324 5.89397e-12 
-0.000386084 -0.0026647 -0.033688 0.0303713 0.00369785 -0.0163298 0.00869975 -0.031514 -0.00224752 
-0.0230884 0.0486786 -0.0700764 -0.00101811 -0.0272995 -0.0139442 0.0362803 0.0010376 -0.0103843 
0.0194997 -0.0167 0.00492667 0.0143636 -0.00315706 -0.00693347 -0.0223333 -0.0372102 -0.000439472 
-0.00931756 -0.0198761 0.000614155 -0.0020887 -0.00782341 -0.00690254 0.0458508 0.0140511 -0.0591523 
0.0546426 -0.0158473 3.38214e-07 -0.00633335 0.00573746 -0.000353729 0.0133574 -0.00390896 -0.000160971 
0.00663077 -0.0274222 -0.000329847 0.0390003 -0.0506153 -0.0642221 -0.0290623 -0.00958655 -0.0178383 
-0.0441206 -0.0308587 -0.0465641 0.00674231 -0.0264972 0.00135052 0.00369592 -0.0116077 9.03183e-12 
0.0333838 -0.0196486 -0.000208073 -0.0183875 -0.00841361 0.000670795 0.0291884 -0.0246566 -4.97803e-05 
0.0405716 0.0128948 -3.72443e-06 0.00260646 -0.00288637 0.000358401 -0.0225907 -0.011101 -0.00172861 
0.0253754 -0.0135405 0.000634009 0.00827454 0.0039113 -0.00147122 0.000665957 -0.0160839 0.000117902 
0.0259062 -0.0149685 -0.0057704 0.0444401 -0.0224623 -7.0359e-05 0.0264829 -0.00777448 0.0167916 
-0.0113915 -0.00211342 -1.92884e-12 0.00304067 -0.0142533 -0.00220052 -0.00773651 -0.0043723 -0.0206408 
0.0285005 -0.0224191 -0.000937251 0.000612769 -0.000400679 -8.08037e-12 0.0479869 -0.0188212 -0.0191585 
0.0169793 -0.0019103 -0.0272993 0.0198152 0.0291852 -0.00372959 0.0139002 0.0179762 -2.24017e-06 
-0.000261963 -0.0016501 0.001982 -0.00368601 0.0065555 -0.00281665 0.00976423 -0.0204599 -0.0816727 
-0.00378128 0.000283672 -1.48878e-11 0.0307032 -0.0162966 4.71322e-08 4.44765e-05 0.000405537 -1.23907e-11 
-0.00814162 0.00608401 -4.06234e-12 0.0033633 0.000775467 0.000178539 -0.038832 -0.0249048 -0.00026649 
0.0232095 -0.00123461 0.00110215 0.00979726 0.0106771 -0.00167134 0.00166241 0.00205144 -0.000164827 
-0.0383046 0.0524821 9.80704e-12 -0.0152074 0.0145472 0.00028799 -0.00830083 0.0153402 -9.42732e-10 
0.0002823 -0.0135421 0.000109673 -0.0080696 0.00560054 -8.61805e-07 -0.00171179 -0.0100635 -0.040405 
-0.0139527 -0.0111972 -0.0290965 0.0121005 0.0161658 -0.0186808 0.00938971 0.00277985 0.00678612 
-0.0382219 -0.0342934 -0.0136641 0.00438778 0.0158607 -6.69012e-12 0.00286185 -0.0132729 -0.00454214 
0.0314784 -0.00621041 -0.0101672 0.0401335 0.0236594 -6.84247e-12 0.0238452 -0.00162529 0.00239021 
0.0069475 0.00758982 0.0202114 -0.00541416 0.0169815 -0.00110426 0.00943573 0.00248215 -1.39659e-11 
0.015276 -0.0285673 0.0143834 -0.00317065 -0.0296493 -0.0394834 0.0305734 0.00455838 7.48143e-12 
-0.00380765 -0.00759776 -0.000999108 -0.00395195 0.00229854 -3.38927e-05 0.00886646 -0.0119062 -1.05374e-05 
0.00726261 -0.00742158 -4.28532e-07 -0.0110588 -0.0233217 0.0018958 0.0228144 -0.0254617 -5.6179e-05 
-0.0019942 0.0126231 3.19356e-12 -0.0246155 0.00197999 -6.06417e-06 -0.000794997 -0.00569864 3.19356e-12 
-0.000772933 -0.00482359 -0.0198204 -0.00598576 -0.0145481 2.08113e-05 0.00801498 0.00626542 -0.000580368 
-0.0238192 -0.0304041 -0.0198149 -0.00453698 -0.020008 -0.0217423 -0.00989683 0.00223928 -1.26799e-05 
-0.00415398 -0.00610979 0.000211243 0.00932346 -0.00576793 -0.0106558 0.0857942 -0.0552305 0.0252788 
0.0133095 -0.0156536 -0.013457 -0.0145315 0.0105937 -0.00871253 0.00631885 0.0157985 -0.00434812 
0.017945 -0.0088622 -0.010505 -0.013164 0.0154917 0.000526 0.0270398 0.0279537 -0.0159212 
0.00987384 0.015921 0.00432055 -0.00563351 -0.00362076 -0.00597183 -0.0178247 0.0282784 -0.0069105 
-0.00283055 0.0391274 -0.00029596 0.00258959 -0.000703758 9.7647e-05 0.0104598 0.00508042 7.60497e-05 
0.00835677 -0.0183442 -0.00323754 0.000397661 -0.0157943 0.00115985 -0.000520889 -0.00332004 -0.00891501 
-0.0121447 -0.000685195 -0.000744556 0.000690354 -0.0211606 0.000615779 -0.0101076 0.0305969 -0.049101 
-0.00112217 -0.011433 0.000127811 -0.00831651 -0.00280722 -0.00520314 -0.00814853 0.017087 0.000666738 
-0.0144336 0.010236 -0.0297783 -0.00837277 0.0179414 9.44508e-05 0.000761421 0.000416498 -0.000107453 
0.00182046 0.0132665 0.000433617 -0.0154476 0.00829003 -1.75749e-06 -0.00573056 0.0406471 0.00045902 
-0.0324244 -0.0098868 -0.0587619 0.0172766 0.010486 -0.000472537 -0.00585449 0.0414247 0.0249997 
0.0255047 -0.000205113 -0.0246075 -0.0119382 0.0256461 -0.00556465 -0.00513207 0.00300228 0.000533092 
-0.0325746 0.0341188 -1.00919e-11 -0.00253901 0.00899297 -0.000295396 -0.00163483 0.0331755 -0.00954183 
0.0278006 -0.00877495 -0.0199826 0.0241665 0.00342185 -0.0386686 -0.00599407 -0.00447617 -0.000173032 
-0.00122376 -0.0166553 -0.0105458 0.00178552 -0.00391599 -0.0470796 -0.00410804 0.00447473 -0.0352165 
0.00199964 0.00893962 0.000190551 0.00352593 0.00729279 -0.000559296 0.0630097 0.0529293 1.0023e-11 
-0.0134483 0.00686003 -0.00156063 -0.00295887 -0.00819134 -0.00428094 -0.0086877 0.00241356 0.000563363 
0.000421264 -0.0122593 6.37505e-05 -1.41336e-05 -0.00101094 -3.83841e-12 -0.00382407 0.00777415 0.000209702 
0.00190046 -0.00201398 1.47835e-11 -0.0187495 -0.000579487 0.000751756 -0.000700409 -0.00696658 -0.0088725 
-0.00249168 -0.0159233 -0.000700429 -0.0164227 0.00195509 0.000583691 0.00537573 -0.00679513 0.000300678 
-0.0214661 -9.07566e-06 -0.0437414 0.000608169 -0.00293074 -0.00581213 -0.0196927 -0.00431294 0.00644882 
-0.00802858 0.0155013 -0.0145342 0.0108714 0.00306771 0.00681757 -0.0348247 -0.021583 0.0378519 
0.00146501 0.0147549 -0.0220893 0.00122595 -0.0323524 -0.00619815 -0.000181939 -5.31014e-05 -1.50931e-13 
-0.00369667 0.000702951 -0.0100006 -0.00302206 0.0226078 0.00181328 0.00203709 0.0178399 -0.0183074 
-0.00101054 0.0205167 -0.0240592 -0.00522012 -0.0130747 9.94427e-05 -0.00227464 0.00556077 -0.000190506 
0.00133459 0.000502104 -0.00282039 0.00617659 0.0201177 -1.07053e-05 -0.00232866 -0.00763932 0.00135751 
-0.00244314 0.000587042 0.000291915 -0.0116676 0.0118444 0.00132745 0.000613617 0.000266702 -0.00033727 
-0.0158073 0.0241978 0.000501442 -0.0249908 -0.0111268 1.64168e-06 0.00125723 -0.00654201 0.00199926 
0.00927571 0.0199944 -2.00924e-05 0.000866771 -0.010689 -0.000346555 0.00265592 0.00163083 0.000618869 
-0.00274127 0.000893389 -5.40605e-07 0.00012917 -0.00227063 -1.15767e-11 0.0175645 0.00684727 -0.0801403 
-0.000161226 -0.00982953 -0.000408341 0.028084 -0.00610104 -0.0425263 0.0126708 0.0046735 -0.0415307 
-0.00131089 -0.0249539 -0.00256202 -0.0211843 0.0216389 -0.00115529 0.0260829 0.0316171 -0.0546228 