# vtk DataFile Version 4.0
Generated by LIGGGHTS
ASCII
DATASET POLYDATA
POINTS 488 float
0.00844804 0.00680527 0.0182398 0.00292458 0.00459217 0.0207965 0.0118581 0.00781842 0.0214779 
0.00959177 0.00278027 0.0210843 0.00732138 0.0075197 0.0233904 0.0113896 0.00435135 0.0231994 
0.0131888 0.00166028 0.0201794 0.0202745 0.00370201 0.022178 0.015665 0.00583687 0.0196045 
0.012859 0.00625689 0.0235135 0.0179382 0.00327865 0.0240275 0.018421 0.00652441 0.0222394 
0.00795691 0.0119102 0.0178602 0.0090251 0.0153598 0.0188253 0.00219654 0.0162748 0.0206129 
0.00783978 0.0101656 0.0208723 0.0108472 0.0139544 0.0223651 0.00357581 0.00836295 0.0224362 
0.0231063 0.0107814 0.0203935 0.0195778 0.0114288 0.0234369 0.0140958 0.0132982 0.0210616 
0.00709034 0.023174 0.0225168 0.00308342 0.0221653 0.0223021 0.00529244 0.0188048 0.0206825 
0.0116183 0.0172748 0.0245007 0.00478205 0.0187605 0.0233724 0.00914235 0.0231966 0.0245866 
0.0148928 0.0230402 0.0228031 0.0176988 0.0244545 0.0219105 0.022581 0.0227675 0.0211535 
0.019805 0.0205858 0.0236203 0.0157523 0.0178105 0.0244726 0.0202048 0.0202193 0.020497 
0.0108832 0.0296624 0.0224172 0.0104062 0.0268639 0.0193124 0.0113487 0.0306972 0.0202986 
0.00407608 0.0332766 0.0216614 0.0092696 0.0316573 0.0244268 0.00230251 0.0322374 0.0244258 
0.00660921 0.0280517 0.0244151 0.000900116 0.0257758 0.0247558 0.00382032 0.0253825 0.0211665 
0.0143331 0.0287116 0.0203511 0.0176603 0.0295638 0.0197703 0.0214659 0.0290058 0.0183822 
0.0183115 0.0313894 0.0239624 0.0220485 0.0306753 0.023196 0.0129352 0.0310327 0.0242007 
0.0216686 0.0251729 0.0220586 0.00673508 0.0392073 0.020456 0.00797306 0.0351687 0.0206869 
0.00343213 0.0370204 0.0198082 0.0109362 0.0388326 0.0230536 0.0106649 0.0386313 0.0202467 
0.0178733 0.0377034 0.0198467 0.0201038 0.0414697 0.0203155 0.0225284 0.0343253 0.0202302 
0.017175 0.0404566 0.0210632 0.0123085 0.0405059 0.0228333 0.014766 0.0363065 0.0206744 
0.0206607 0.0374848 0.0224942 0.0180476 0.0415061 0.0248605 0.0065439 0.0476948 0.0206437 
0.00856018 0.0467983 0.0234638 0.00389644 0.0484977 0.0198657 0.00832877 0.0428933 0.0232873 
0.0160413 0.0442543 0.0207637 0.0144577 0.0461063 0.0222391 0.0225443 0.0455754 0.023043 
0.0139264 0.0431249 0.0196283 0.00217018 0.0566907 0.0186743 0.00418213 0.0535135 0.0193885 
0.00845178 0.0534956 0.0191823 0.010114 0.055018 0.0242582 0.00522034 0.0568425 0.0201414 
0.0215164 0.0582485 0.0212908 0.0159258 0.0525458 0.0231364 0.0130256 0.0550133 0.0216752 
0.0199799 0.0581907 0.023178 0.0224189 0.0560622 0.0244051 0.00470345 0.0590695 0.0205084 
0.00924167 0.0646967 0.0224708 0.0116891 0.0583731 0.0201395 0.00628006 0.0655537 0.024038 
0.0217693 0.0636077 0.0199965 0.0143938 0.0645765 0.0241334 0.022676 0.0600376 0.0200621 
0.0125131 0.0622152 0.0202429 0.0207497 0.0657099 0.0243929 0.0197857 0.0592613 0.0217744 
0.0140253 0.0609346 0.0211896 0.00890187 0.0679317 0.0198315 0.00254164 0.0667222 0.0194495 
0.00461083 0.0693915 0.0238608 0.0169642 0.0685253 0.0197989 0.0142797 0.0700204 0.0221151 
0.0157491 0.0706358 0.0197914 0.0198245 0.0720953 0.0217686 0.0154734 0.0675839 0.0224454 
0.0123205 0.0686813 0.0201158 0.0103529 0.00171083 0.0294949 0.000958321 0.00782428 0.0290152 
0.00693432 0.00361614 0.0300177 0.0045196 0.0029912 0.0288396 0.0103416 0.00830573 0.0275776 
0.0057805 0.00250871 0.0254551 0.00285892 0.00564683 0.0324456 0.00176935 0.00451734 0.0291326 
0.00233337 0.00271905 0.0295666 0.018264 0.00760126 0.029737 0.0211612 0.00165672 0.0264139 
0.0127962 0.00758782 0.0313307 0.00507376 0.00842223 0.0290595 0.00802696 0.0159414 0.029392 
0.00297045 0.0135633 0.0313045 0.00673894 0.0166289 0.0317967 0.00794544 0.00913169 0.0298436 
0.00595494 0.0148079 0.0299807 0.00950063 0.0161374 0.0280862 0.0085781 0.0131697 0.0265546 
0.0051923 0.00929624 0.0264584 0.00395151 0.0155215 0.0277629 0.01077 0.011809 0.0296515 
0.00212079 0.0128128 0.0278687 0.0123137 0.0122819 0.0265553 0.0221824 0.00970732 0.0293206 
0.0211672 0.0139958 0.0296767 0.0185807 0.0104342 0.0297494 0.0192868 0.012194 0.0320238 
0.0161106 0.0102288 0.0261643 0.0155823 0.0117822 0.0295257 0.0152539 0.0145221 0.0294 
0.0223981 0.0149634 0.026121 0.00597383 0.0180316 0.0252263 0.00410589 0.0240813 0.0315469 
0.00938785 0.0172223 0.0315016 0.00752008 0.0188469 0.0320342 0.00549383 0.0210196 0.0303019 
0.00663197 0.0234065 0.0274198 0.00959355 0.0215053 0.0260689 0.0193281 0.0249513 0.0309454 
0.0140346 0.0243441 0.0288992 0.0124281 0.0201043 0.025676 0.0181586 0.0227732 0.0283935 
0.0212201 0.0204577 0.0320951 0.0152654 0.0192084 0.0321684 0.0215956 0.0170964 0.0254771 
0.0178715 0.0199662 0.028476 0.0191481 0.0170126 0.0321475 0.0221997 0.0198057 0.0295332 
0.0216813 0.0199168 0.0263709 0.00504555 0.0265219 0.0298092 0.00340775 0.0313771 0.0304706 
0.0102634 0.025745 0.0278332 0.00837284 0.0323634 0.0324117 0.00212828 0.0310462 0.0270537 
0.00231526 0.0269901 0.0290328 0.0169621 0.0309306 0.0281752 0.0204392 0.0315728 0.026024 
0.0145974 0.0319076 0.0267935 0.0145387 0.0267897 0.0307272 0.0218672 0.0303104 0.0298167 
0.0219385 0.025531 0.0290945 0.0132822 0.032341 0.0318597 0.0221385 0.0307882 0.0325189 
0.019608 0.0252894 0.0252012 0.021793 0.0324299 0.0293474 0.00146146 0.0338178 0.0278248 
0.00279383 0.0370846 0.030505 0.00996367 0.0357004 0.025871 0.00745052 0.0402794 0.0296784 
0.00258399 0.0411628 0.0289776 0.0082902 0.0416088 0.026943 0.00456457 0.0396502 0.0298639 
0.00597108 0.0374407 0.0258621 0.00426745 0.0342729 0.0300336 0.0183459 0.0372004 0.0293142 
0.0212804 0.0364281 0.0273678 0.0222301 0.0409894 0.031594 0.0173664 0.0387622 0.0296242 
0.0191028 0.0399496 0.0324181 0.0149588 0.0366776 0.0255039 0.0137421 0.0362548 0.0329752 
0.0040563 0.0442909 0.0263457 0.0115789 0.0445498 0.027239 0.00437483 0.0491548 0.0268511 
0.00590834 0.0421978 0.0271825 0.00367793 0.0470131 0.0296017 0.00206722 0.0490577 0.0329422 
0.0167354 0.0493604 0.0284217 0.0181861 0.0439835 0.0309139 0.017168 0.0462406 0.0254966 
0.0228257 0.0491904 0.026634 0.0130939 0.0427248 0.0301681 0.0141421 0.0466031 0.0330638 
0.0166053 0.0420962 0.0331668 0.00121332 0.0507394 0.0286184 0.00114061 0.0568531 0.0316278 
0.0113834 0.0510835 0.0319669 0.00658256 0.0536446 0.0318168 0.00885017 0.0525112 0.0321712 
0.00826333 0.0555584 0.0279898 0.0048504 0.0518319 0.0251667 0.0142509 0.0571342 0.0313287 
0.0175509 0.0576337 0.0297235 0.0211836 0.0537653 0.0330344 0.0188146 0.0512296 0.0261115 
0.00590173 0.0635174 0.0269974 0.00627432 0.0641002 0.0307061 0.00670257 0.0629187 0.0249489 
0.00970005 0.0648939 0.0283209 0.00293561 0.058584 0.0286711 0.00488338 0.0593388 0.0328119 
0.0145242 0.0586162 0.0288345 0.0146122 0.0605922 0.027599 0.0179495 0.0657639 0.0260072 
0.0192075 0.0663352 0.0275018 0.020417 0.0619447 0.0309804 0.0216979 0.0640816 0.0274545 
0.0166942 0.0632964 0.0288664 0.0216878 0.0599629 0.0285189 0.0144183 0.0584869 0.026499 
0.0203342 0.0657963 0.0330041 0.0122775 0.0633463 0.0330951 0.0205384 0.0646176 0.0308779 
0.00401247 0.0674778 0.0274538 0.0076424 0.06812 0.0249471 0.00852214 0.0739399 0.0319164 
0.0114951 0.0709855 0.0300478 0.00550481 0.0731226 0.0274387 0.00823647 0.0698209 0.0313273 
0.00938029 0.0704313 0.0249841 0.00211763 0.0717844 0.0319347 0.00486081 0.0739485 0.0308874 
0.00347276 0.0707753 0.0281897 0.0141255 0.0713066 0.02834 0.018148 0.0696201 0.0304778 
0.0217023 0.0707441 0.0275227 0.0169529 0.0733011 0.0279497 0.0126531 0.0667646 0.0326548 
0.018705 0.0704584 0.0275036 0.00201074 0.00778063 0.0364561 0.00254613 0.00239847 0.0339043 
0.00495085 0.00292959 0.0349918 0.00928342 0.00785202 0.0374782 0.0184125 0.00722762 0.0374485 
0.0196505 0.00623721 0.0395694 0.0168759 0.00457246 0.0382137 0.0173514 0.00102055 0.0398515 
0.0175142 0.00274671 0.0345737 0.0205401 0.00260023 0.0399396 0.0186052 0.00597749 0.0347692 
0.0151466 0.00178804 0.0404705 0.0123621 0.00495657 0.0410575 0.0162305 0.00473697 0.0357228 
0.0117053 0.0114401 0.037481 0.00720731 0.00850714 0.039497 0.00196373 0.0139166 0.0376363 
0.0060127 0.00957921 0.0380511 0.0030389 0.00885569 0.0345751 0.00641469 0.0115688 0.0340725 
0.00824673 0.00890476 0.0346763 0.0101232 0.0138719 0.038053 0.00846248 0.0155761 0.0347423 
0.00665892 0.0142114 0.0405069 0.0221154 0.0155542 0.0357295 0.0155181 0.0143095 0.0383688 
0.0169646 0.010655 0.0397481 0.0146826 0.0086597 0.0366611 0.0165391 0.0155993 0.0403956 
0.0133633 0.0132563 0.0387171 0.0199177 0.0164873 0.0401602 0.0206759 0.0125917 0.0409796 
0.0120824 0.0162231 0.0340763 0.00332332 0.0221991 0.0379531 0.0106431 0.0185575 0.0363494 
0.00284916 0.0182006 0.0378283 0.0079513 0.0170402 0.0377937 0.00727309 0.02156 0.0337846 
0.00327756 0.0183963 0.0346575 0.0028907 0.0247385 0.0416342 0.0212472 0.0193071 0.0373443 
0.0164093 0.0207215 0.0364509 0.015344 0.0226414 0.0413669 0.0129864 0.0218411 0.0336014 
0.00948369 0.0264072 0.0387999 0.00809151 0.031209 0.0406032 0.00484566 0.0279504 0.0341453 
0.00894682 0.0289819 0.0394777 0.0016613 0.0294415 0.0391101 0.010472 0.0323464 0.0381114 
0.0047928 0.0270853 0.0392362 0.0167479 0.0286921 0.0388085 0.0202707 0.0295577 0.0382981 
0.0186557 0.0323328 0.0351419 0.0146873 0.0275178 0.0350924 0.0198608 0.0271607 0.0345448 
0.0154755 0.0297623 0.0353148 0.0162681 0.0305743 0.0342104 0.0165707 0.025996 0.0352867 
0.0220385 0.0259338 0.0366419 0.0160981 0.0258897 0.0406743 0.019371 0.0262737 0.0415452 
0.00526846 0.0341313 0.0362541 0.0101036 0.0409972 0.0400852 0.00772468 0.0395226 0.0397697 
0.00170431 0.0386558 0.0350127 0.00985373 0.0363355 0.0359765 0.00519562 0.033864 0.0405813 
0.0103407 0.037019 0.04123 0.0118872 0.0375809 0.0388379 0.0232982 0.0395975 0.0339229 
0.0180118 0.0404232 0.0357405 0.0127469 0.0400617 0.0361903 0.0183388 0.0407005 0.0406885 
0.0136965 0.0415842 0.0402888 0.0200438 0.03779 0.0341328 0.0160712 0.039709 0.0357606 
0.0220316 0.0412262 0.0354638 0.00451722 0.0460013 0.0387622 0.00244266 0.0432347 0.0368596 
0.0104956 0.0433489 0.0388023 0.00676952 0.0479691 0.0359227 0.00726208 0.0430067 0.03488 
0.00535793 0.0467266 0.0366037 0.0107307 0.0456082 0.0349304 0.01246 0.0470766 0.03527 
0.0197783 0.0445287 0.036217 0.0144982 0.0450404 0.0388399 0.0206536 0.0417444 0.0385309 
0.0182176 0.0480537 0.0350852 0.0139288 0.0480208 0.0402744 0.0050846 0.0525834 0.0361046 
0.0107237 0.051664 0.0353156 0.0104567 0.0566665 0.0368913 0.00301684 0.0500983 0.040694 
0.00753649 0.0556669 0.0374923 0.0134683 0.0546227 0.0356201 0.0204697 0.0577288 0.0382705 
0.0136367 0.0511819 0.0351351 0.0153333 0.0577417 0.0354599 0.0131442 0.055953 0.0403239 
0.0187915 0.0500443 0.0389544 0.0187044 0.0519656 0.0409788 0.0229771 0.0501203 0.0383754 
0.0149562 0.0506872 0.0396441 0.018122 0.0522708 0.0359583 0.00177619 0.0636726 0.0359896 
0.0092374 0.0654349 0.0341507 0.00238741 0.066386 0.0392989 0.0117335 0.0640655 0.0386665 
0.00758379 0.0646679 0.0389403 0.00578734 0.0618747 0.0404722 0.00900454 0.06017 0.0402865 
0.00259861 0.0590412 0.0405678 0.00488197 0.0600714 0.0381964 0.0194623 0.0654732 0.0389757 
0.018602 0.0595401 0.0348133 0.0176052 0.0600406 0.0409517 0.0222847 0.0591215 0.0410454 
0.0187699 0.0656339 0.041321 0.00506202 0.066943 0.0341891 0.00977231 0.0698448 0.040653 
0.00730996 0.0709858 0.0394821 0.00530909 0.0683851 0.0395156 0.00741687 0.0728702 0.0416178 
0.0138841 0.0675286 0.0391355 0.0229404 0.0739582 0.0350152 0.0167587 0.0727939 0.0379013 
0.0143211 0.0720127 0.0359347 0.0232744 0.0672511 0.0351604 0.016493 0.0694513 0.0370657 
0.0127904 0.0739456 0.041006 0.0120963 0.0700046 0.0368548 0.00937192 0.00597929 0.045157 
0.0114011 0.00726372 0.0420485 0.0183938 0.00438148 0.0435611 0.0147725 0.00323037 0.0467662 
0.00383572 0.00922304 0.0423304 0.00259207 0.0153147 0.0455828 0.0101476 0.0121799 0.0448277 
0.00429127 0.0103079 0.0470116 0.00893013 0.0147692 0.0432308 0.00709299 0.0122801 0.0459243 
0.00513663 0.010548 0.0420295 0.0162078 0.0160373 0.0438621 0.0189309 0.0107493 0.0440738 
0.020883 0.0162296 0.0465513 0.0135147 0.0161842 0.0417051 0.0211142 0.00899134 0.0464323 
0.0166648 0.0141989 0.0462175 0.00288355 0.024311 0.0471073 0.00939218 0.0201111 0.0423944 
0.00468838 0.0173041 0.0416741 0.00257078 0.0219637 0.0470534 0.00376736 0.018657 0.0472853 
0.0185941 0.0221777 0.0439193 0.0180558 0.0241192 0.0466561 0.0193423 0.0202005 0.0423012 
0.0136218 0.0201025 0.043508 0.0162136 0.0169526 0.0475857 0.0120497 0.0202814 0.0464653 
0.0182556 0.017854 0.0486539 0.00530827 0.0253327 0.0448146 0.00827276 0.0256318 0.0468519 
0.00175976 0.0256627 0.044607 0.0040061 0.0328917 0.0442628 0.0120241 0.030125 0.0430209 
0.0191084 0.0327041 0.0418793 0.0221941 0.0275237 0.0450201 0.0168421 0.0291258 0.0457382 
0.0221685 0.0309593 0.0428024 0.0177175 0.0304826 0.0484335 0.0100265 0.0378009 0.0464713 
0.00361778 0.0375863 0.0435969 0.00362774 0.0357525 0.0452103 0.00240537 0.0344983 0.0448266 
0.011423 0.0347839 0.0443486 0.00735913 0.0405493 0.0442864 0.00345067 0.0357037 0.0485011 
0.00897265 0.0352843 0.0490344 0.00377059 0.0383945 0.0485011 0.00636522 0.038184 0.0435617 
0.00883982 0.0338108 0.043224 0.00481591 0.040728 0.0464684 0.0123684 0.0360026 0.0474915 
0.0169108 0.0368415 0.0478607 0.0224015 0.0414647 0.0484142 0.0159783 0.0350156 0.0424822 
0.00916995 0.0478454 0.0435603 0.00161446 0.044543 0.0420875 0.0118242 0.0429704 0.0454565 
0.0111194 0.0426853 0.0433423 0.00788784 0.0448043 0.0471874 0.00500872 0.0423787 0.0429751 
0.010925 0.0496754 0.0474344 0.00589264 0.0426825 0.0458527 0.000991763 0.0436153 0.0467553 
0.00593702 0.0485504 0.0445836 0.00768719 0.0446856 0.0439206 0.0208308 0.0467032 0.0449634 
0.0174635 0.042491 0.0474899 0.013174 0.0462617 0.0474223 0.0136451 0.0419599 0.0478763 
0.0186274 0.0454978 0.0423812 0.0155029 0.0433924 0.0485125 0.0113392 0.0564269 0.0459815 
0.00514608 0.0568195 0.0453871 0.011889 0.0574529 0.0445517 0.00744656 0.0572075 0.0448809 
0.013277 0.0556374 0.0472548 0.0180464 0.0566672 0.0419148 0.021682 0.0560112 0.0419865 
0.0149133 0.0515853 0.0474929 0.00197749 0.0612414 0.0425725 0.00696538 0.0599205 0.0422207 
0.0062057 0.0601622 0.0480461 0.00171192 0.0632098 0.0465595 0.0104269 0.0627051 0.0437125 
0.0117107 0.0657981 0.0471024 0.00812645 0.0665203 0.04298 0.0139397 0.0652977 0.0423944 
0.0194232 0.0661107 0.0484238 0.0209525 0.0654317 0.0439892 0.0200257 0.0626521 0.0471266 
0.0185991 0.0585459 0.0424729 0.0148664 0.0597199 0.0452381 0.0188776 0.0605587 0.0443184 
0.0118293 0.0701352 0.0427038 0.011161 0.0711665 0.0460517 0.00323431 0.0722822 0.0471901 
0.00215467 0.0674887 0.0427246 0.00352564 0.0730491 0.0445145 0.00289871 0.0705328 0.0477581 
0.0182738 0.0716393 0.0449238 0.0205314 0.0712685 0.0424648 0.0219494 0.0737763 0.0423287 
0.0158234 0.0721885 0.0486753 0.0134801 0.0727238 0.0472173 0.0170664 0.0341758 0.0373072 
0.0119704 0.0589599 0.0358167 0.00317872 0.00249723 0.0383768 0.00327276 0.0665923 0.0465665 
0.0219667 0.00915585 0.0429157 0.0150509 0.00226074 0.038489 0.0118064 0.0679351 0.0437994 
0.0180764 0.0564767 0.0215854 0.00242525 0.0287463 0.0459003 
VERTICES 488 976
1 0 
1 1 
1 2 
1 3 
1 4 
1 5 
1 6 
1 7 
1 8 
1 9 
1 10 
1 11 
1 12 
1 13 
1 14 
1 15 
1 16 
1 17 
1 18 
1 19 
1 20 
1 21 
1 22 
1 23 
1 24 
1 25 
1 26 
1 27 
1 28 
1 29 
1 30 
1 31 
1 32 
1 33 
1 34 
1 35 
1 36 
1 37 
1 38 
1 39 
1 40 
1 41 
1 42 
1 43 
1 44 
1 45 
1 46 
1 47 
1 48 
1 49 
1 50 
1 51 
1 52 
1 53 
1 54 
1 55 
1 56 
1 57 
1 58 
1 59 
1 60 
1 61 
1 62 
1 63 
1 64 
1 65 
1 66 
1 67 
1 68 
1 69 
1 70 
1 71 
1 72 
1 73 
1 74 
1 75 
1 76 
1 77 
1 78 
1 79 
1 80 
1 81 
1 82 
1 83 
1 84 
1 85 
1 86 
1 87 
1 88 
1 89 
1 90 
1 91 
1 92 
1 93 
1 94 
1 95 
1 96 
1 97 
1 98 
1 99 
1 100 
1 101 
1 102 
1 103 
1 104 
1 105 
1 106 
1 107 
1 108 
1 109 
1 110 
1 111 
1 112 
1 113 
1 114 
1 115 
1 116 
1 117 
1 118 
1 119 
1 120 
1 121 
1 122 
1 123 
1 124 
1 125 
1 126 
1 127 
1 128 
1 129 
1 130 
1 131 
1 132 
1 133 
1 134 
1 135 
1 136 
1 137 
1 138 
1 139 
1 140 
1 141 
1 142 
1 143 
1 144 
1 145 
1 146 
1 147 
1 148 
1 149 
1 150 
1 151 
1 152 
1 153 
1 154 
1 155 
1 156 
1 157 
1 158 
1 159 
1 160 
1 161 
1 162 
1 163 
1 164 
1 165 
1 166 
1 167 
1 168 
1 169 
1 170 
1 171 
1 172 
1 173 
1 174 
1 175 
1 176 
1 177 
1 178 
1 179 
1 180 
1 181 
1 182 
1 183 
1 184 
1 185 
1 186 
1 187 
1 188 
1 189 
1 190 
1 191 
1 192 
1 193 
1 194 
1 195 
1 196 
1 197 
1 198 
1 199 
1 200 
1 201 
1 202 
1 203 
1 204 
1 205 
1 206 
1 207 
1 208 
1 209 
1 210 
1 211 
1 212 
1 213 
1 214 
1 215 
1 216 
1 217 
1 218 
1 219 
1 220 
1 221 
1 222 
1 223 
1 224 
1 225 
1 226 
1 227 
1 228 
1 229 
1 230 
1 231 
1 232 
1 233 
1 234 
1 235 
1 236 
1 237 
1 238 
1 239 
1 240 
1 241 
1 242 
1 243 
1 244 
1 245 
1 246 
1 247 
1 248 
1 249 
1 250 
1 251 
1 252 
1 253 
1 254 
1 255 
1 256 
1 257 
1 258 
1 259 
1 260 
1 261 
1 262 
1 263 
1 264 
1 265 
1 266 
1 267 
1 268 
1 269 
1 270 
1 271 
1 272 
1 273 
1 274 
1 275 
1 276 
1 277 
1 278 
1 279 
1 280 
1 281 
1 282 
1 283 
1 284 
1 285 
1 286 
1 287 
1 288 
1 289 
1 290 
1 291 
1 292 
1 293 
1 294 
1 295 
1 296 
1 297 
1 298 
1 299 
1 300 
1 301 
1 302 
1 303 
1 304 
1 305 
1 306 
1 307 
1 308 
1 309 
1 310 
1 311 
1 312 
1 313 
1 314 
1 315 
1 316 
1 317 
1 318 
1 319 
1 320 
1 321 
1 322 
1 323 
1 324 
1 325 
1 326 
1 327 
1 328 
1 329 
1 330 
1 331 
1 332 
1 333 
1 334 
1 335 
1 336 
1 337 
1 338 
1 339 
1 340 
1 341 
1 342 
1 343 
1 344 
1 345 
1 346 
1 347 
1 348 
1 349 
1 350 
1 351 
1 352 
1 353 
1 354 
1 355 
1 356 
1 357 
1 358 
1 359 
1 360 
1 361 
1 362 
1 363 
1 364 
1 365 
1 366 
1 367 
1 368 
1 369 
1 370 
1 371 
1 372 
1 373 
1 374 
1 375 
1 376 
1 377 
1 378 
1 379 
1 380 
1 381 
1 382 
1 383 
1 384 
1 385 
1 386 
1 387 
1 388 
1 389 
1 390 
1 391 
1 392 
1 393 
1 394 
1 395 
1 396 
1 397 
1 398 
1 399 
1 400 
1 401 
1 402 
1 403 
1 404 
1 405 
1 406 
1 407 
1 408 
1 409 
1 410 
1 411 
1 412 
1 413 
1 414 
1 415 
1 416 
1 417 
1 418 
1 419 
1 420 
1 421 
1 422 
1 423 
1 424 
1 425 
1 426 
1 427 
1 428 
1 429 
1 430 
1 431 
1 432 
1 433 
1 434 
1 435 
1 436 
1 437 
1 438 
1 439 
1 440 
1 441 
1 442 
1 443 
1 444 
1 445 
1 446 
1 447 
1 448 
1 449 
1 450 
1 451 
1 452 
1 453 
1 454 
1 455 
1 456 
1 457 
1 458 
1 459 
1 460 
1 461 
1 462 
1 463 
1 464 
1 465 
1 466 
1 467 
1 468 
1 469 
1 470 
1 471 
1 472 
1 473 
1 474 
1 475 
1 476 
1 477 
1 478 
1 479 
1 480 
1 481 
1 482 
1 483 
1 484 
1 485 
1 486 
1 487 

POINT_DATA 488
FIELD FieldData 7
id 1 488 int
35 125 367 403 442 449 114 197 290 
332 5 412 15 68 83 235 408 461 
232 400 414 98 310 355 227 394 110 
91 280 307 344 105 443 100 188 225 
349 151 170 111 261 479 22 58 74 
285 301 34 422 3 106 196 283 450 
7 55 99 265 276 293 338 46 78 
32 343 407 21 139 189 253 109 128 
163 228 279 88 94 121 135 244 40 
233 284 311 86 210 240 322 323 325 
382 171 224 136 69 148 260 314 335 
358 45 47 271 304 373 399 405 434 
446 56 140 425 65 87 41 179 243 
270 281 305 336 353 390 473 36 177 
180 205 19 340 397 448 475 4 54 
209 42 366 406 429 84 112 155 190 
249 77 354 380 388 436 456 93 103 
254 319 371 468 31 66 96 176 186 
263 294 357 370 411 20 48 226 245 
267 273 330 350 472 95 127 80 181 
268 296 211 24 63 206 417 437 6 
57 161 238 242 328 391 143 53 306 
43 308 359 378 389 386 418 252 430 
17 79 318 387 401 427 82 85 138 
216 266 269 352 375 384 28 174 470 
29 51 156 195 203 218 287 363 424 
462 64 158 184 207 14 457 162 272 
404 423 10 59 118 173 185 208 246 
374 192 464 52 73 164 187 298 315 
345 379 420 477 75 89 60 230 237 
277 278 221 327 27 37 137 341 392 
395 444 372 447 2 478 129 175 229 
342 398 438 458 23 33 44 92 102 
199 201 204 214 250 116 104 11 1 
320 324 346 361 421 13 133 236 291 
49 356 360 459 30 141 198 241 339 
381 451 115 150 160 234 255 72 122 
149 212 329 347 38 166 222 257 259 
302 167 410 452 474 71 142 247 251 
275 303 313 119 396 97 152 334 231 
39 292 16 402 439 393 67 134 153 
178 215 312 376 467 9 282 26 321 
12 61 62 219 220 256 377 101 113 
123 146 274 454 169 213 295 299 435 
25 81 107 147 154 182 348 108 200 
217 432 144 145 191 193 419 455 90 
124 132 248 262 286 333 362 369 431 
465 469 223 309 316 409 76 117 126 
165 194 202 288 326 331 364 476 120 
172 239 337 365 415 258 289 440 460 
70 317 426 471 157 168 351 383 433 
445 466 183 264 297 300 368 453 463 
8 18 130 416 428 441 50 131 159 
385 413 480 481 482 483 484 485 486 
487 488 
type 1 488 int
1 1 1 1 1 1 1 1 1 
1 1 1 1 1 1 1 1 1 
1 1 1 1 1 1 1 1 1 
1 1 1 1 1 1 1 1 1 
1 1 1 1 1 1 1 1 1 
1 1 1 1 1 1 1 1 1 
1 1 1 1 1 1 1 1 1 
1 1 1 1 1 1 1 1 1 
1 1 1 1 1 1 1 1 1 
1 1 1 1 1 1 1 1 1 
1 1 1 1 1 1 1 1 1 
1 1 1 1 1 1 1 1 1 
1 1 1 1 1 1 1 1 1 
1 1 1 1 1 1 1 1 1 
1 1 1 1 1 1 1 1 1 
1 1 1 1 1 1 1 1 1 
1 1 1 1 1 1 1 1 1 
1 1 1 1 1 1 1 1 1 
1 1 1 1 1 1 1 1 1 
1 1 1 1 1 1 1 1 1 
1 1 1 1 1 1 1 1 1 
1 1 1 1 1 1 1 1 1 
1 1 1 1 1 1 1 1 1 
1 1 1 1 1 1 1 1 1 
1 1 1 1 1 1 1 1 1 
1 1 1 1 1 1 1 1 1 
1 1 1 1 1 1 1 1 1 
1 1 1 1 1 1 1 1 1 
1 1 1 1 1 1 1 1 1 
1 1 1 1 1 1 1 1 1 
1 1 1 1 1 1 1 1 1 
1 1 1 1 1 1 1 1 1 
1 1 1 1 1 1 1 1 1 
1 1 1 1 1 1 1 1 1 
1 1 1 1 1 1 1 1 1 
1 1 1 1 1 1 1 1 1 
1 1 1 1 1 1 1 1 1 
1 1 1 1 1 1 1 1 1 
1 1 1 1 1 1 1 1 1 
1 1 1 1 1 1 1 1 1 
1 1 1 1 1 1 1 1 1 
1 1 1 1 1 1 1 1 1 
1 1 1 1 1 1 1 1 1 
1 1 1 1 1 1 1 1 1 
1 1 1 1 1 1 1 1 1 
1 1 1 1 1 1 1 1 1 
1 1 1 1 1 1 1 1 1 
1 1 1 1 1 1 1 1 1 
1 1 1 1 1 1 1 1 1 
1 1 1 1 1 1 1 1 1 
1 1 1 1 1 1 1 1 1 
1 1 1 1 1 1 1 1 1 
1 1 1 1 1 1 1 1 1 
1 1 1 1 1 1 1 1 1 
1 1 
i 3 488 int
0 0 0 0 0 0 0 0 0 
0 0 0 0 0 0 0 0 0 
0 0 0 0 0 0 0 0 0 
0 0 0 0 0 0 0 0 0 
0 0 0 0 0 0 0 0 0 
0 0 0 0 0 0 0 0 0 
0 0 0 0 0 0 0 0 0 
0 0 0 0 0 0 0 0 0 
0 0 0 0 0 0 0 0 0 
0 0 0 0 0 0 0 0 0 
0 0 0 0 0 0 0 0 0 
0 0 0 0 0 0 0 0 0 
0 0 0 0 0 0 0 0 0 
0 0 0 0 0 0 0 0 0 
0 0 0 0 0 0 0 0 0 
0 0 0 0 0 0 0 0 0 
0 0 0 0 0 0 0 0 0 
0 0 0 0 0 0 0 0 0 
0 0 0 0 0 0 0 0 0 
0 0 0 0 0 0 0 0 0 
0 0 0 0 0 0 0 0 0 
0 0 0 0 0 0 0 0 0 
0 0 0 0 0 0 0 0 0 
0 0 0 0 0 0 0 0 0 
0 0 0 0 0 0 0 0 0 
0 0 0 0 0 0 0 0 0 
0 0 0 0 0 0 0 0 0 
0 0 0 0 0 0 0 0 0 
0 0 0 0 0 0 0 0 0 
0 0 0 0 0 0 0 0 0 
0 0 0 0 0 0 0 0 0 
0 0 0 0 0 0 0 0 0 
0 0 0 0 0 0 0 0 0 
0 0 0 0 0 0 0 0 0 
0 0 0 0 0 0 0 0 0 
0 0 0 0 0 0 0 0 0 
0 0 0 0 0 0 0 0 0 
0 0 0 0 0 0 0 0 0 
0 0 0 0 0 0 0 0 0 
0 0 0 0 0 0 0 0 0 
0 0 0 0 0 0 0 0 0 
0 0 0 0 0 0 0 0 0 
0 0 0 0 0 0 0 0 0 
0 0 0 0 0 0 0 0 0 
0 0 0 0 0 0 0 0 0 
0 0 0 0 0 0 0 0 0 
0 0 0 0 0 0 0 0 0 
0 0 0 0 0 0 0 0 0 
0 0 0 0 0 0 0 0 0 
0 0 0 0 0 0 0 0 0 
0 0 0 0 0 0 0 0 0 
0 0 0 0 0 0 0 0 0 
0 0 0 0 0 0 0 0 0 
0 0 0 0 0 0 0 0 0 
0 0 0 0 0 0 0 0 0 
0 0 0 0 0 0 0 0 0 
0 0 0 0 0 0 0 0 0 
0 0 0 0 0 0 0 0 0 
0 0 0 0 0 0 0 0 0 
0 0 0 0 0 0 0 0 0 
0 0 0 0 0 0 0 0 0 
0 0 0 0 0 0 0 0 0 
0 0 0 0 0 0 0 0 0 
0 0 0 0 0 0 0 0 0 
0 0 0 0 0 0 0 0 0 
0 0 0 0 0 0 0 0 0 
0 0 0 0 0 0 0 0 0 
0 0 0 0 0 0 0 0 0 
0 0 0 0 0 0 0 0 0 
0 0 0 0 0 0 0 0 0 
0 0 0 0 0 0 0 0 0 
0 0 0 0 0 0 0 0 0 
0 0 0 0 0 0 0 0 0 
0 0 0 0 0 0 0 0 0 
0 0 0 0 0 0 0 0 0 
0 0 0 0 0 0 0 0 0 
0 0 0 0 0 0 0 0 0 
0 0 0 0 0 0 0 0 0 
0 0 0 0 0 0 0 0 0 
0 0 0 0 0 0 0 0 0 
0 0 0 0 0 0 0 0 0 
0 0 0 0 0 0 0 0 0 
0 0 0 0 0 0 0 0 0 
0 0 0 0 0 0 0 0 0 
0 0 0 0 0 0 0 0 0 
0 0 0 0 0 0 0 0 0 
0 0 0 0 0 0 0 0 0 
0 0 0 0 0 0 0 0 0 
0 0 0 0 0 0 0 0 0 
0 0 0 0 0 0 0 0 0 
0 0 0 0 0 0 0 0 0 
0 0 0 0 0 0 0 0 0 
0 0 0 0 0 0 0 0 0 
0 0 0 0 0 0 0 0 0 
0 0 0 0 0 0 0 0 0 
0 0 0 0 0 0 0 0 0 
0 0 0 0 0 0 0 0 0 
0 0 0 0 0 0 0 0 0 
0 0 0 0 0 0 0 0 0 
0 0 0 0 0 0 0 0 0 
0 0 0 0 0 0 0 0 0 
0 0 0 0 0 0 0 0 0 
0 0 0 0 0 0 0 0 0 
0 0 0 0 0 0 0 0 0 
0 0 0 0 0 0 0 0 0 
0 0 0 0 0 0 0 0 0 
0 0 0 0 0 0 0 0 0 
0 0 0 0 0 0 0 0 0 
0 0 0 0 0 0 0 0 0 
0 0 0 0 0 0 0 0 0 
0 0 0 0 0 0 0 0 0 
0 0 0 0 0 0 0 0 0 
0 0 0 0 0 0 0 0 0 
0 0 0 0 0 0 0 0 0 
0 0 0 0 0 0 0 0 0 
0 0 0 0 0 0 0 0 0 
0 0 0 0 0 0 0 0 0 
0 0 0 0 0 0 0 0 0 
0 0 0 0 0 0 0 0 0 
0 0 0 0 0 0 0 0 0 
0 0 0 0 0 0 0 0 0 
0 0 0 0 0 0 0 0 0 
0 0 0 0 0 0 0 0 0 
0 0 0 0 0 0 0 0 0 
0 0 0 0 0 0 0 0 0 
0 0 0 0 0 0 0 0 0 
0 0 0 0 0 0 0 0 0 
0 0 0 0 0 0 0 0 0 
0 0 0 0 0 0 0 0 0 
0 0 0 0 0 0 0 0 0 
0 0 0 0 0 0 0 0 0 
0 0 0 0 0 0 0 0 0 
0 0 0 0 0 0 0 0 0 
0 0 0 0 0 0 0 0 0 
0 0 0 0 0 0 0 0 0 
0 0 0 0 0 0 0 0 0 
0 0 0 0 0 0 0 0 0 
0 0 0 0 0 0 0 0 0 
0 0 0 0 0 0 0 0 0 
0 0 0 0 0 0 0 0 0 
0 0 0 0 0 0 0 0 0 
0 0 0 0 0 0 0 0 0 
0 0 0 0 0 0 0 0 0 
0 0 0 0 0 0 0 0 0 
0 0 0 0 0 0 0 0 0 
0 0 0 0 0 0 0 0 0 
0 0 0 0 0 0 0 0 0 
0 0 0 0 0 0 0 0 0 
0 0 0 0 0 0 0 0 0 
0 0 0 0 0 0 0 0 0 
0 0 0 0 0 0 0 0 0 
0 0 0 0 0 0 0 0 0 
0 0 0 0 0 0 0 0 0 
0 0 0 0 0 0 0 0 0 
0 0 0 0 0 0 0 0 0 
0 0 0 0 0 0 0 0 0 
0 0 0 0 0 0 0 0 0 
0 0 0 0 0 0 0 0 0 
0 0 0 0 0 0 0 0 0 
0 0 0 0 0 0 0 0 0 
0 0 0 0 0 0 0 0 0 
0 0 0 0 0 0 0 0 0 
0 0 0 0 0 0 
v 3 488 double
0 0 -2.07896 0 0 -1.6998 0 0 -0.613346 
0 0 -0.415919 0 0 -0.245225 0 0 -0.226096 
0 0 -1.74763 0.190212 0.0344681 -1.6205 0 0 -0.96577 
0 0 -0.781587 -0.190212 -0.0344681 -1.90296 0 0 -0.391885 
0 0 -2.11943 0 0 -1.92862 0 0 -1.86829 
0 0 -1.1914 0 0 -0.405619 0 0 -0.154238 
0 0 -1.19851 0 0 -0.431861 0 0 -0.387961 
0 0 -1.80869 0 0 -0.864972 0 0 -0.671225 
0 0 -1.21789 -0.390168 0.238636 -1.45751 0 0 -1.77706 
0 0 -1.82513 0 0 -1.00329 0 0 -0.886064 
0 0 -0.726651 0 0 -1.78883 0 0 -0.244244 
0 0 -1.80036 0 0 -1.40624 0 0 -1.22819 
0 0 -0.702617 0 0 -1.57816 0 0 -1.50213 
0 0 -1.77583 0 0 -1.08913 0 0 -0.0527042 
0 0 -2.10962 0 0 -1.97816 0 0 -1.89625 
0 0 -0.985145 0 0 -0.920889 0 0 -2.0792 
0 0 -0.336213 0 0 -2.18442 0 0 -1.78834 
0 0 -1.36185 0 0 -0.991766 0 0 -0.211871 
0 0 -2.16651 0 0 -1.9865 0 0 -1.80207 
0 0 -1.05651 0 0 -1.01359 0 0 -0.953262 
0 0 -0.751421 0 0 -2.01299 0 0 -1.88031 
0 0 -2.08264 0 0 -0.726896 0 0 -0.408317 
0 0 -2.11035 0 0 -1.63726 0 0 -1.40599 
0 0 -1.13843 0 0 -1.78098 0 0 -1.68877 
0 0 -1.52371 0 0 -1.21347 0 0 -1.00354 
0 0 -1.84107 0 0 -1.81041 0 0 -1.73291 
0 0 -1.65517 0 0 -1.14946 0 0 -2.03334 
0 0 -1.19581 0 0 -0.988578 0 0 -0.86252 
0 0 -1.85161 0 0 -1.29465 0 0 -1.17816 
0 0 -0.834561 0 0 -0.827449 0 0 -0.822299 
0 0 -0.540506 0 0 -1.49674 0 0 -1.22892 
0 0 -1.65075 0 0 -1.92715 0 0 -1.58821 
0 0 -1.09134 0 0 -0.850502 0 0 -0.75976 
0 0 -0.658962 0 0 -2.01372 0 0 -2.01152 
0 0 -1.03174 0 0 -0.910098 0 0 -0.58833 
0 0 -0.437992 0 0 -0.411995 0 0 -0.293785 
0 0 -0.241792 0 0 -1.98331 0 0 -1.63653 
0 0 -0.326648 0 0 -1.94039 0 0 -1.85039 
0 0 -2.02697 0 0 -1.44425 0 0 -1.16369 
0 0 -1.03248 0 0 -1.00182 0 0 -0.900533 
0 0 -0.756817 0 0 -0.683487 0 0 -0.486551 
0 0 -0.074041 0 0 -2.07479 0 0 -1.44769 
0 0 -1.44229 -0.0625117 -0.155793 -1.631 0.0625117 0.155793 -1.79338 
0 0 -0.743819 0 0 -0.444859 0 0 -0.237377 
0 0 -0.061288 0.181289 -0.110881 -1.71504 0 0 -1.9995 
0 0 -1.29514 0 0 -2.01985 0 0 -0.614327 
0 0 -0.409543 0 0 -0.304085 0 0 -1.85627 
0 0 -1.767 0 0 -1.55143 0 0 -1.3903 
0 0 -1.14382 0 0 -1.88472 0 0 -0.672206 
0 0 -0.564541 0 0 -0.499304 0 0 -0.282503 
0 0 -0.188082 0 0 -1.81507 0 0 -1.79128 
0 0 -1.13695 0 0 -0.837995 0 0 -0.600838 
0 0 -0.122846 0 0 -2.0846 0 0 -1.93573 
0 0 -1.80918 0 0 -1.45087 0 0 -1.40967 
0 0 -1.07638 0 0 -0.952036 0 0 -0.664112 
0 0 -0.603781 0 0 -0.397526 0 0 -2.11109 
0 0 -2.01029 0 0 -1.22524 0 0 -1.14775 
0 0 -1.04155 0 0 -1.0261 0 0 -0.788945 
0 0 -0.70139 0 0 -0.0774745 0 0 -1.80992 
0 0 -1.6895 0 0 -1.87835 0 0 -1.43861 
0 0 -1.04057 0 0 -0.949093 0 0 -1.2895 
0 0 -2.10054 0 0 -1.9426 0 0 -1.30765 
0 0 -0.377415 0 0 -0.278825 0 0 -2.17706 
0 0 -1.98086 0 0 -1.52862 0 0 -1.18821 
0 0 -1.17203 0 0 -0.81347 0 0 -0.486061 
0 0 -1.60121 0 0 -2.00146 0 0 -0.890723 
0 0 -2.01618 0 0 -0.876744 0 0 -0.656264 
0 0 -0.575822 0 0 -0.487287 0 0 -0.510831 
0 0 -0.371284 0 0 -1.14063 0 0 -0.298445 
-0.156383 0.11692 -1.50472 0 0 -1.88006 0.156383 -0.11692 -1.45319 
0 0 -0.50004 0 0 -0.429653 0 0 -0.30899 
0.00858598 0.0104823 -1.60687 0 0 -1.85578 0 0 -1.64241 
0 0 -1.26301 0 0 -1.05014 0 0 -1.03272 
0 0 -0.685694 0 0 -0.584897 -0.039724 -0.0484978 -1.73465 
0 0 -2.09 0 0 -1.4548 0 0 -0.0919442 
0 0 -2.08852 0 0 -2.00857 0 0 -1.55069 
0 0 -1.37264 0 0 -1.32408 0 0 -1.25271 
0 0 -0.98073 0 0 -0.621929 0 0 -0.32861 
0 0 -0.150068 0 0 -1.94236 0 0 -1.53941 
0 0 -1.42905 0 0 -1.30372 0 0 -2.12801 
0 0 -0.184894 0 0 -1.52396 0 0 -1.0315 
0 0 -0.412731 0 0 -0.330327 0 0 -2.16382 
0 0 -1.96418 0 0 -1.73585 0 0 -1.46436 
0 0 -1.41286 0 0 -1.29956 0 0 -1.14652 
0 0 -0.586368 0 0 -1.3876 0 0 -0.140504 
0 0 -2.00588 0.0426154 -0.0382437 -1.83675 0 0 -1.52249 
-0.134429 0.120639 -1.62433 0 0 -0.928247 0 0 -0.849767 
0 0 -0.723218 0 0 -0.56822 0 0 -0.351419 
0 0 -0.0590807 0 0 -1.89134 0 0 -1.82856 
0 0 -1.96198 0 0 -1.20562 0 0 -1.18846 
0 0 -1.01212 0 0 -1.01041 0 0 -1.24364 
0 0 -0.815922 0 0 -2.09269 0 0 -2.07356 
0 0 -1.64487 0 0 -0.743083 0 0 -0.476987 
0 0 -0.453688 0 0 -0.243018 0 0 -0.598631 
0 0 -0.237623 0 0 -2.1881 0 0 -0.05344 
0 0 -1.6868 0 0 -1.45235 0 0 -1.21028 
0 0 -0.733763 0 0 -0.441916 0 0 -0.266807 
0 0 -0.171405 0 0 -2.10324 0 0 -2.08166 
0 0 -2.01495 0 0 -1.82292 0 0 -1.79471 
0 0 -1.34198 0 0 -1.33266 0 0 -1.31648 
0 0 -1.27895 0 0 -1.14161 0 0 -1.74395 
0 0 -1.79104 -0.042982 -0.257866 -1.85125 0 0 -2.18957 
0 0 -0.837504 0 0 -0.826713 0 0 -0.715615 
0 0 -0.640814 0 0 -0.341118 0 0 -2.13831 
0 0 -1.67552 0 0 -1.18944 0 0 -0.963808 
0 0 -2.00955 0 0 -0.665339 0 0 -0.650133 
0 0 -0.170669 -0.151048 -0.1303 -1.49991 0 0 -1.6331 
0.0199804 0.11987 -1.48402 0 0 -1.17693 0 0 -0.749459 
0.221543 0.191113 -1.41052 0 0 -0.211626 0 0 -1.74689 
0 0 -1.58282 0.0158232 -0.0828279 -1.60128 0 0 -1.19361 
0 0 -1.12567 -0.0158232 0.0828279 -1.84125 0 0 -1.72899 
0 0 -1.58576 0 0 -1.2868 0 0 -0.797283 
0 0 -0.714634 0 0 -2.07136 0 0 -1.52151 
0 0 -1.24241 0 0 -1.10973 0 0 -1.1036 
0.0048203 -0.106348 -1.10171 -0.00706986 0.155979 -1.25049 0 0 -0.403412 
0 0 -0.209174 0 0 -0.070117 0 0 -1.9166 
0 0 -1.61936 0 0 -1.14578 0 0 -1.14137 
0 0 -1.0185 0 0 -0.916229 0 0 -0.855162 
0 0 -1.73536 0 0 -0.453443 0.0202762 -0.00470554 -1.91419 
0 0 -1.57522 0 0 -0.77987 0 0 -1.20096 
-0.0297394 0.00690167 -1.90349 0 0 -0.958412 0.428782 -0.198692 -1.78315 
-0.199329 0.0923664 -0.577919 0 0 -0.261167 0 0 -0.457367 
0 0 -1.93328 0 0 -1.66007 0 0 -1.56737 
0 0 -1.44499 0 0 -1.27037 0 0 -0.861048 
0 0 -0.578765 0 0 -0.134863 0 0 -2.16455 
0 0 -1.00158 0 0 -2.09441 0 0 -0.837259 