# vtk DataFile Version 4.0
Generated by LIGGGHTS
ASCII
DATASET POLYDATA
POINTS 965 float
0.00844804 0.00680527 0.0116988 0.00292458 0.00459217 0.0144887 0.0131888 0.00166028 0.0137641 
0.015665 0.00583687 0.0149484 0.0207025 0.00377956 0.0160488 0.00795691 0.0119102 0.0113326 
0.0090251 0.0153598 0.0121436 0.00219654 0.0162748 0.0139261 0.00783978 0.0101656 0.0157085 
0.0231063 0.0107814 0.0152137 0.00709034 0.023174 0.0159641 0.0148928 0.0230402 0.0162134 
0.0104062 0.0268639 0.0136652 0.0113487 0.0306972 0.015052 0.0108832 0.0296624 0.0158833 
0.0214659 0.0290058 0.0116325 0.0176603 0.0295638 0.0128362 0.0143331 0.0287116 0.0131213 
0.00673508 0.0392073 0.0130579 0.00343213 0.0370204 0.0142609 0.00797306 0.0351687 0.01418 
0.0178733 0.0377034 0.0124889 0.0201038 0.0414697 0.0133627 0.0225284 0.0343253 0.0136924 
0.014766 0.0363065 0.0160464 0.017175 0.0404566 0.0162029 0.0065439 0.0476948 0.0139298 
0.00389644 0.0484977 0.0157471 0.00856018 0.0467983 0.0162947 0.0160413 0.0442543 0.0135323 
0.0139264 0.0431249 0.0145837 0.0144577 0.0461063 0.0160721 0.00217018 0.0566907 0.012184 
0.00418213 0.0535135 0.0131056 0.00845178 0.0534956 0.0132708 0.00522034 0.0568425 0.0154003 
0.0215164 0.0582485 0.0146652 0.0130256 0.0550133 0.015293 0.00470345 0.0590695 0.0134502 
0.0116891 0.0583731 0.0154321 0.0217693 0.0636077 0.0133473 0.022676 0.0600376 0.0149281 
0.0125131 0.0622152 0.015882 0.00890187 0.0679317 0.0139807 0.00254164 0.0667222 0.0142013 
0.0169642 0.0685253 0.0129797 0.0157491 0.0706358 0.0148527 0.0142797 0.0700204 0.0160585 
0.0123205 0.0686813 0.01615 0.0118542 0.00782451 0.0176049 0.00959177 0.00278027 0.0176654 
0.00737717 0.00748232 0.0202867 0.0113896 0.00435135 0.0202075 0.00284316 0.00317792 0.0224836 
0.0057805 0.00250871 0.0219864 0.00554543 0.00528939 0.0198529 0.000958321 0.00782428 0.0220061 
0.0103529 0.00171083 0.0224808 0.0103416 0.00830573 0.0237707 0.00500077 0.00788403 0.0239942 
0.0045196 0.0029912 0.0243088 0.000905409 0.00375843 0.0248874 0.0129161 0.00616793 0.0194158 
0.0175991 0.00336034 0.0173904 0.018421 0.00652441 0.0188745 0.0217211 0.00664946 0.0206983 
0.0226663 0.00139677 0.0184267 0.0158177 0.000924417 0.0228961 0.0162221 0.000803048 0.0185185 
0.0211612 0.00165672 0.0202486 0.018264 0.00760126 0.0227914 0.0158421 0.00641332 0.0244641 
0.0140214 0.00335173 0.0229444 0.010657 0.0141713 0.0187263 0.00357581 0.00836295 0.019606 
0.00461686 0.0110043 0.0176998 0.00971182 0.0113082 0.018813 0.0085781 0.0131697 0.0220452 
0.00503948 0.00950899 0.0222369 0.00721632 0.0151708 0.0193828 0.000822782 0.0140703 0.0216966 
0.00972269 0.0161669 0.023159 0.00692308 0.0146235 0.0232163 0.00981468 0.0105857 0.0242534 
0.00765026 0.0159928 0.0232098 0.00395151 0.0155215 0.0237419 0.00187072 0.0125919 0.0242373 
0.00794544 0.00913169 0.0247422 0.00462692 0.0143066 0.0202376 0.0195803 0.0114317 0.0199767 
0.0141848 0.0133493 0.0175518 0.0124363 0.0122573 0.019685 0.0186714 0.01065 0.0217312 
0.0161493 0.010249 0.0224782 0.015821 0.010078 0.0202801 0.019249 0.013536 0.0222585 
0.0229831 0.0154187 0.0218969 0.021619 0.0126989 0.0215114 0.021347 0.0100971 0.022258 
0.0147927 0.0164712 0.0223409 0.0223138 0.00964598 0.0242096 0.0176338 0.0141082 0.0242505 
0.0148969 0.0128969 0.0232793 0.0183908 0.00996394 0.0244317 0.0207829 0.00839388 0.0203644 
0.0213834 0.0142122 0.0246141 0.00308342 0.0221653 0.0178727 0.00536896 0.0187856 0.0165596 
0.0115968 0.0171995 0.0192365 0.00385196 0.0193105 0.0176983 0.00914235 0.0231966 0.018105 
0.00181676 0.0198225 0.0199777 0.00611964 0.0184956 0.0195028 0.00220238 0.0231027 0.0234406 
0.00599076 0.0209071 0.0232689 0.00959355 0.0215053 0.0229016 0.0028263 0.0173276 0.0196586 
0.010694 0.0212865 0.0185728 0.00128124 0.017966 0.0214328 0.00663197 0.0234065 0.0240152 
0.0119567 0.0246821 0.0225982 0.00410589 0.0240813 0.0245649 0.0176988 0.0244545 0.01717 
0.022581 0.0227675 0.0166767 0.0197805 0.0206082 0.0196996 0.0158627 0.0173464 0.018352 
0.0202215 0.020204 0.0173298 0.0125996 0.020124 0.0201045 0.0215956 0.0170964 0.0214815 
0.0160938 0.0194264 0.0233931 0.0209217 0.0223702 0.0196731 0.0152649 0.0198604 0.019209 
0.0216513 0.0199222 0.0232844 0.0149728 0.0219241 0.0208219 0.0143245 0.0242903 0.0226748 
0.0181586 0.0227732 0.0227822 0.0160837 0.0220941 0.0243092 0.019037 0.0248867 0.0244769 
0.0178715 0.0199662 0.0247226 0.00407988 0.0332788 0.0175944 0.0092696 0.0316573 0.0183928 
0.00230075 0.0322364 0.0185642 0.00660921 0.0280517 0.0179364 0.000900116 0.0257758 0.0198221 
0.00382032 0.0253825 0.0185647 0.011513 0.028457 0.0220796 0.0104597 0.0301405 0.0236736 
0.00168362 0.0309312 0.0220743 0.00859417 0.0259125 0.0221939 0.0105681 0.0257744 0.0236021 
0.00504555 0.0265219 0.0232422 0.0118314 0.0318001 0.0243625 0.0035038 0.031402 0.0242042 
0.0182561 0.0311723 0.0190487 0.0220785 0.0306565 0.0185907 0.0129352 0.0310327 0.0170393 
0.0216686 0.0251729 0.018819 0.019608 0.0252894 0.0213595 0.0209586 0.0317623 0.0202368 
0.0145974 0.0319076 0.0202397 0.0139761 0.0268157 0.0236582 0.0205605 0.0274485 0.0201041 
0.016582 0.0307501 0.0220427 0.0146258 0.026391 0.020706 0.0155845 0.0298862 0.0199435 
0.0220738 0.025561 0.0241006 0.0218672 0.0303104 0.0241617 0.0201663 0.0323634 0.0248285 
0.0208604 0.0282342 0.0231917 0.0110667 0.0389294 0.020105 0.0106533 0.0386192 0.0172378 
0.0099237 0.0357437 0.0206441 0.00596676 0.0351776 0.02045 0.00597108 0.0374407 0.0218008 
0.0114574 0.0340834 0.0219578 0.00146146 0.0338178 0.0205917 0.00500286 0.0346023 0.0235395 
0.00829252 0.0416115 0.0221437 0.00221611 0.0359788 0.0224378 0.00235519 0.0401085 0.0229078 
0.0112776 0.0395164 0.0244594 0.00263002 0.041375 0.0247456 0.00745827 0.0402672 0.0246245 
0.0124959 0.0407196 0.0183007 0.0206715 0.0375475 0.0183217 0.0180476 0.0415061 0.0178481 
0.0149588 0.0366776 0.0208853 0.0203142 0.0342829 0.0191487 0.0212804 0.0364281 0.0210833 
0.0183459 0.0372004 0.0227587 0.0173664 0.0387622 0.0239042 0.0227683 0.0335397 0.020528 
0.0222115 0.0397651 0.022516 0.00832877 0.0428933 0.0198855 0.0033338 0.0474631 0.0225692 
0.00624403 0.0481769 0.0217856 0.00431809 0.0444923 0.0193375 0.00166195 0.0424047 0.0193289 
0.0111289 0.0445369 0.021135 0.00437483 0.0491548 0.0214257 0.00586749 0.0422486 0.0238121 
0.0225443 0.0455754 0.0173963 0.0204667 0.04823 0.0180375 0.0169572 0.0449428 0.0207446 
0.0174559 0.0468708 0.0217429 0.0147949 0.0446049 0.0197745 0.0209534 0.0450017 0.0221476 
0.0228257 0.0491904 0.0215138 0.0168927 0.0495512 0.0219791 0.0153621 0.0476951 0.0204079 
0.0196874 0.0430312 0.0246756 0.00962771 0.0545049 0.019419 0.01191 0.0568369 0.0205966 
0.00484249 0.0517601 0.0217472 0.00684905 0.0558085 0.0207369 0.00497544 0.0529674 0.0199676 
0.00265563 0.0538131 0.0238555 0.00121332 0.0507394 0.0216319 0.00821754 0.0506709 0.0199492 
0.00126625 0.0556511 0.0206728 0.00946596 0.0563643 0.0198896 0.00826461 0.0555365 0.0242225 
0.00910289 0.0509306 0.0246643 0.0159258 0.0525458 0.0165798 0.020036 0.0578815 0.0174521 
0.0224189 0.0560622 0.0193357 0.0180764 0.0564767 0.0190852 0.0205196 0.0542458 0.0215868 
0.0184619 0.0542899 0.018191 0.0152161 0.0549241 0.0229994 0.0135239 0.0501626 0.0219398 
0.0188146 0.0512296 0.0229568 0.0206409 0.0503187 0.0222191 0.0172939 0.0578024 0.0235858 
0.00924167 0.0646967 0.0172971 0.00628006 0.0655537 0.0196142 0.00670455 0.0626866 0.0196018 
0.00353967 0.0599039 0.019699 0.00390816 0.0637994 0.0187703 0.00922358 0.0624862 0.0193198 
0.011525 0.066611 0.0211909 0.00241169 0.0662939 0.0200086 0.00311129 0.0607478 0.0234835 
0.00549914 0.0638103 0.0211877 0.00807466 0.0587848 0.0231487 0.0026187 0.063836 0.0243198 
0.00627432 0.0641002 0.0239928 0.0143938 0.0645765 0.0187373 0.0207486 0.065724 0.0199868 
0.0197035 0.0597149 0.0167349 0.0140253 0.0609346 0.0174903 0.0179495 0.0657639 0.0198287 
0.0150993 0.0665221 0.0235066 0.0143289 0.0583778 0.0201129 0.0166142 0.0612334 0.0193779 
0.0146122 0.0605922 0.0209403 0.0191449 0.066361 0.0223091 0.0227412 0.0609951 0.0231336 
0.0217202 0.0640433 0.0227375 0.0214983 0.0612714 0.0219664 0.0145435 0.0586398 0.0227359 
0.0127416 0.0628046 0.0224928 0.021781 0.0596635 0.0245392 0.0166942 0.0632964 0.0248404 
0.00461083 0.0693915 0.0176635 0.0076424 0.06812 0.0179447 0.00938029 0.0704313 0.0202943 
0.00145604 0.0671025 0.0225351 0.00414249 0.0712295 0.0205621 0.00217098 0.0711448 0.0232947 
0.00432086 0.0675231 0.0203748 0.00550481 0.0731226 0.0219764 0.00889418 0.0676235 0.0235994 
0.0114951 0.0709855 0.0244762 0.0198245 0.0720953 0.0173718 0.0154734 0.0675839 0.0182528 
0.0159527 0.0715218 0.0208353 0.022956 0.0682447 0.0231239 0.0183652 0.0700252 0.0188883 
0.0217023 0.0707441 0.0218242 0.0190835 0.0710282 0.0218014 0.0206828 0.0724701 0.0218265 
0.0132992 0.0711434 0.0232636 0.0172647 0.0732936 0.0242072 0.01811 0.0695628 0.0248125 
0.00693432 0.00361614 0.0252131 0.00285892 0.00564683 0.0290354 0.00176935 0.00451734 0.0259885 
0.00233337 0.00271905 0.0265395 0.00667409 0.00787797 0.0299993 0.00254613 0.00239847 0.0291002 
0.00127525 0.0037768 0.0298174 0.00640273 0.00333001 0.0303041 0.00174892 0.00749216 0.0309138 
0.00492181 0.00292159 0.0316183 0.00894065 0.00470904 0.0277627 0.0111569 0.00478014 0.0258782 
0.0074455 0.00170587 0.0282151 0.0127923 0.00758511 0.0281549 0.0161244 0.00593163 0.0288358 
0.0123749 0.00291593 0.0310634 0.0212508 0.00146544 0.0279223 0.0131769 0.00785104 0.0252859 
0.0203442 0.0037567 0.0269126 0.0175142 0.00274671 0.0289116 0.0173614 0.00269626 0.0253323 
0.0186545 0.00589456 0.0295265 0.0155986 0.00489803 0.0300419 0.0129432 0.00282134 0.026775 
0.0206444 0.00748017 0.0272416 0.0183256 0.0077909 0.0314935 0.016969 0.00454873 0.0322494 
0.0164205 0.00797155 0.0310954 0.0196505 0.00623721 0.0326669 0.0216297 0.00747229 0.0331898 
0.0170399 0.00121156 0.033211 0.0035084 0.0140385 0.0263726 0.00587934 0.0147333 0.0252846 
0.01077 0.011809 0.0260736 0.004232 0.0104655 0.0295151 0.00641469 0.0115688 0.0296773 
[...]
POINT_DATA 965
FIELD FieldData 7
id 1 965 int
35 125 114 290 197 15 68 83 235 
232 98 91 188 225 100 74 58 22 
3 196 106 7 55 99 293 265 78 
343 32 21 253 139 109 128 163 279 
88 121 40 284 86 240 322 171 224 
69 260 148 358 367 403 442 449 549 
399 707 47 45 373 65 304 512 332 
5 412 509 568 572 599 140 56 675 
894 408 461 510 654 305 336 781 827 
281 582 635 87 353 473 243 951 400 
414 36 710 340 753 754 475 816 824 
846 177 569 910 205 934 180 310 355 
227 394 110 500 4 583 740 429 790 
794 802 406 638 54 280 307 344 105 
443 155 354 689 749 761 456 828 112 
190 884 84 380 349 151 170 111 261 
479 721 556 371 823 254 93 629 103 
285 301 34 422 370 66 96 682 691 
31 777 780 263 186 739 940 283 450 
226 626 350 701 20 738 273 519 838 
919 267 245 276 338 46 296 698 127 
95 181 899 946 407 494 533 24 684 
63 206 417 189 491 565 238 604 627 
242 57 795 594 228 493 389 559 668 
672 53 822 835 873 378 636 94 135 
244 487 560 564 679 706 430 841 848 
233 311 318 495 574 608 661 694 579 
17 490 508 79 210 323 325 382 138 
609 384 709 85 216 501 269 820 82 
915 375 352 136 51 287 586 621 611 
29 203 814 195 314 335 571 525 757 
184 457 839 64 207 158 271 405 434 
446 590 272 704 719 162 404 857 933 
936 425 521 529 531 553 643 185 660 
246 464 779 792 10 118 911 59 606 
840 41 270 390 507 315 657 298 345 
420 52 637 164 187 19 397 448 517 
327 681 75 720 230 89 60 179 209 
42 366 566 603 392 663 674 743 37 
395 27 137 249 77 388 436 601 478 
711 723 853 900 447 945 319 468 591 
605 229 612 726 767 829 833 854 859 
876 633 129 176 294 357 411 518 540 
102 201 44 92 204 199 771 214 856 
33 23 48 330 472 537 554 686 320 
766 104 634 324 690 901 80 268 211 
538 13 356 715 133 236 360 459 897 
805 952 437 6 630 664 695 713 716 
737 339 241 141 451 885 381 914 927 
115 198 161 328 391 143 499 544 580 
615 645 702 255 150 160 306 43 308 
359 511 644 659 149 561 122 778 807 
212 943 386 418 252 588 595 613 680 
38 717 222 725 257 797 809 852 891 
166 387 401 427 514 142 584 602 71 
773 784 872 562 918 266 28 174 470 
585 152 683 759 834 869 892 97 662 
930 156 218 363 424 462 632 292 728 
748 916 14 640 134 708 215 178 642 
874 153 541 67 903 904 312 954 423 
482 505 282 607 617 620 692 9 796 
843 920 924 173 208 374 192 485 610 
26 727 763 670 722 73 379 477 524 
545 12 377 649 220 731 764 62 782 
61 862 557 256 928 237 277 278 221 
146 653 101 113 787 798 484 123 913 
949 341 444 295 542 213 669 733 818 
837 575 929 169 372 2 548 107 573 
676 25 147 735 800 855 81 182 922 
175 342 398 438 458 489 546 744 578 
758 786 108 619 217 880 432 950 250 
116 145 528 144 650 678 696 419 760 
793 191 870 193 11 1 346 361 421 
124 783 132 262 286 729 844 248 465 
431 878 90 887 291 49 480 616 647 
409 830 845 30 117 577 598 202 76 
165 705 810 868 126 476 364 234 72 
520 302 365 688 504 736 120 804 812 
752 907 921 329 347 651 667 677 685 
813 819 881 861 896 289 926 258 259 
167 410 452 474 496 547 317 426 618 
658 746 765 440 70 776 247 251 275 
303 313 119 396 481 536 168 157 699 
466 826 433 953 334 231 39 183 614 
655 656 666 368 714 724 803 297 703 
463 16 402 439 393 539 8 687 745 
416 775 18 836 882 428 898 486 641 
523 376 467 159 576 131 50 769 788 
847 883 917 492 497 628 806 825 879 
886 321 526 552 631 768 864 219 535 
742 774 902 932 274 454 503 581 718 
750 801 831 875 299 435 671 755 756 
762 789 867 925 938 154 348 502 515 
534 596 624 648 652 712 893 200 488 
498 592 623 665 732 842 905 906 939 
455 751 849 866 889 908 333 362 369 
469 530 673 734 947 223 309 316 516 
532 625 730 817 851 865 888 194 288 
326 331 513 772 808 931 944 172 239 
337 415 527 555 558 700 871 460 506 
646 791 815 821 832 850 912 937 471 
543 570 597 693 799 860 942 351 383 
445 483 522 563 587 741 770 877 923 
935 941 264 300 453 567 589 600 622 
639 858 948 130 441 550 551 697 747 
811 863 385 413 593 785 890 895 909 
955 956 957 958 959 960 961 962 963 
964 965 
type 1 965 int
1 1 1 1 1 1 1 1 1 
1 1 1 1 1 1 1 1 1 
1 1 1 1 1 1 1 1 1 
1 1 1 1 1 1 1 1 1 
1 1 1 1 1 1 1 1 1 
1 1 1 1 1 1 1 1 1 
1 1 1 1 1 1 1 1 1 
1 1 1 1 1 1 1 1 1 
1 1 1 1 1 1 1 1 1 
1 1 1 1 1 1 1 1 1 
1 1 1 1 1 1 1 1 1 
1 1 1 1 1 1 1 1 1 
1 1 1 1 1 1 1 1 1 
1 1 1 1 1 1 1 1 1 
1 1 1 1 1 1 1 1 1 
1 1 1 1 1 1 1 1 1 
1 1 1 1 1 1 1 1 1 
1 1 1 1 1 1 1 1 1 
1 1 1 1 1 1 1 1 1 
1 1 1 1 1 1 1 1 1 
1 1 1 1 1 1 1 1 1 
1 1 1 1 1 1 1 1 1 
1 1 1 1 1 1 1 1 1 
1 1 1 1 1 1 1 1 1 
1 1 1 1 1 1 1 1 1 
1 1 1 1 1 1 1 1 1 
1 1 1 1 1 1 1 1 1 
1 1 1 1 1 1 1 1 1 
1 1 1 1 1 1 1 1 1 
1 1 1 1 1 1 1 1 1 
1 1 1 1 1 1 1 1 1 
1 1 1 1 1 1 1 1 1 
1 1 1 1 1 1 1 1 1 
1 1 1 1 1 1 1 1 1 
1 1 1 1 1 1 1 1 1 
1 1 1 1 1 1 1 1 1 
1 1 1 1 1 1 1 1 1 
1 1 1 1 1 1 1 1 1 
1 1 1 1 1 1 1 1 1 
1 1 1 1 1 1 1 1 1 
1 1 1 1 1 1 1 1 1 
1 1 1 1 1 1 1 1 1 
1 1 1 1 1 1 1 1 1 
1 1 1 1 1 1 1 1 1 
1 1 1 1 1 1 1 1 1 
1 1 1 1 1 1 1 1 1 
1 1 1 1 1 1 1 1 1 
1 1 1 1 1 1 1 1 1 
1 1 1 1 1 1 1 1 1 
1 1 1 1 1 1 1 1 1 
1 1 1 1 1 1 1 1 1 
1 1 1 1 1 1 1 1 1 
1 1 1 1 1 1 1 1 1 
1 1 1 1 1 1 1 1 1 
1 1 1 1 1 1 1 1 1 
1 1 1 1 1 1 1 1 1 
1 1 1 1 1 1 1 1 1 
1 1 1 1 1 1 1 1 1 
1 1 1 1 1 1 1 1 1 
1 1 1 1 1 1 1 1 1 
1 1 1 1 1 1 1 1 1 
1 1 1 1 1 1 1 1 1 
1 1 1 1 1 1 1 1 1 
1 1 1 1 1 1 1 1 1 
1 1 1 1 1 1 1 1 1 
1 1 1 1 1 1 1 1 1 
1 1 1 1 1 1 1 1 1 
1 1 1 1 1 1 1 1 1 
1 1 1 1 1 1 1 1 1 
1 1 1 1 1 1 1 1 1 
1 1 1 1 1 1 1 1 1 
1 1 1 1 1 1 1 1 1 
1 1 1 1 1 1 1 1 1 
1 1 1 1 1 1 1 1 1 
1 1 1 1 1 1 1 1 1 
1 1 1 1 1 1 1 1 1 
1 1 1 1 1 1 1 1 1 
1 1 1 1 1 1 1 1 1 
1 1 1 1 1 1 1 1 1 
1 1 1 1 1 1 1 1 1 
1 1 1 1 1 1 1 1 1 
1 1 1 1 1 1 1 1 1 
1 1 1 1 1 1 1 1 1 
1 1 1 1 1 1 1 1 1 
1 1 1 1 1 1 1 1 1 
1 1 1 1 1 1 1 1 1 
1 1 1 1 1 1 1 1 1 
1 1 1 1 1 1 1 1 1 
1 1 1 1 1 1 1 1 1 
1 1 1 1 1 1 1 1 1 
1 1 1 1 1 1 1 1 1 
1 1 1 1 1 1 1 1 1 
1 1 1 1 1 1 1 1 1 
1 1 1 1 1 1 1 1 1 
1 1 1 1 1 1 1 1 1 
1 1 1 1 1 1 1 1 1 
1 1 1 1 1 1 1 1 1 
1 1 1 1 1 1 1 1 1 
1 1 1 1 1 1 1 1 1 
1 1 1 1 1 1 1 1 1 
1 1 1 1 1 1 1 1 1 
1 1 1 1 1 1 1 1 1 
1 1 1 1 1 1 1 1 1 
1 1 1 1 1 1 1 1 1 
1 1 1 1 1 1 1 1 1 
1 1 1 1 1 1 1 1 1 
1 1 1 1 1 1 1 1 1 
1 1 
i 3 965 int
0 0 0 0 0 0 0 0 0 
0 0 0 0 0 0 0 0 0 
0 0 0 0 0 0 0 0 0 
0 0 0 0 0 0 0 0 0 
0 0 0 0 0 0 0 0 0 
0 0 0 0 0 0 0 0 0 
0 0 0 0 0 0 0 0 0 
0 0 0 0 0 0 0 0 0 
0 0 0 0 0 0 0 0 0 
0 0 0 0 0 0 0 0 0 
0 0 0 0 0 0 0 0 0 
0 0 0 0 0 0 0 0 0 
0 0 0 0 0 0 0 0 0 
0 0 0 0 0 0 0 0 0 
0 0 0 0 0 0 0 0 0 
0 0 0 0 0 0 0 0 0 
0 0 0 0 0 0 0 0 0 
0 0 0 0 0 0 0 0 0 
0 0 0 0 0 0 0 0 0 
0 0 0 0 0 0 0 0 0 
0 0 0 0 0 0 0 0 0 
0 0 0 0 0 0 0 0 0 
0 0 0 0 0 0 0 0 0 
0 0 0 0 0 0 0 0 0 
0 0 0 0 0 0 0 0 0 
0 0 0 0 0 0 0 0 0 
0 0 0 0 0 0 0 0 0 
0 0 0 0 0 0 0 0 0 
0 0 0 0 0 0 0 0 0 
0 0 0 0 0 0 0 0 0 
0 0 0 0 0 0 0 0 0 
0 0 0 0 0 0 0 0 0 
0 0 0 0 0 0 0 0 0 
0 0 0 0 0 0 0 0 0 
0 0 0 0 0 0 0 0 0 
0 0 0 0 0 0 0 0 0 
0 0 0 0 0 0 0 0 0 
0 0 0 0 0 0 0 0 0 
0 0 0 0 0 0 0 0 0 
0 0 0 0 0 0 0 0 0 
0 0 0 0 0 0 0 0 0 
0 0 0 0 0 0 0 0 0 
0 0 0 0 0 0 0 0 0 
0 0 0 0 0 0 0 0 0 
0 0 0 0 0 0 0 0 0 
0 0 0 0 0 0 0 0 0 
0 0 0 0 0 0 0 0 0 
0 0 0 0 0 0 0 0 0 
0 0 0 0 0 0 0 0 0 
0 0 0 0 0 0 0 0 0 
0 0 0 0 0 0 0 0 0 
0 0 0 0 0 0 0 0 0 
0 0 0 0 0 0 0 0 0 
0 0 0 0 0 0 0 0 0 
0 0 0 0 0 0 0 0 0 
0 0 0 0 0 0 0 0 0 
0 0 0 0 0 0 0 0 0 
0 0 0 0 0 0 0 0 0 
0 0 0 0 0 0 0 0 0 
0 0 0 0 0 0 0 0 0 
0 0 0 0 0 0 0 0 0 
0 0 0 0 0 0 0 0 0 
0 0 0 0 0 0 0 0 0 
0 0 0 0 0 0 0 0 0 
0 0 0 0 0 0 0 0 0 
0 0 0 0 0 0 0 0 0 
0 0 0 0 0 0 0 0 0 
0 0 0 0 0 0 0 0 0 
0 0 0 0 0 0 0 0 0 
0 0 0 0 0 0 0 0 0 
0 0 0 0 0 0 0 0 0 
0 0 0 0 0 0 0 0 0 
0 0 0 0 0 0 0 0 0 
0 0 0 0 0 0 0 0 0 
0 0 0 0 0 0 0 0 0 
0 0 0 0 0 0 0 0 0 
0 0 0 0 0 0 0 0 0 
0 0 0 0 0 0 0 0 0 
0 0 0 0 0 0 0 0 0 
0 0 0 0 0 0 0 0 0 
0 0 0 0 0 0 0 0 0 
0 0 0 0 0 0 0 0 0 
0 0 0 0 0 0 0 0 0 
0 0 0 0 0 0 0 0 0 
0 0 0 0 0 0 0 0 0 
0 0 0 0 0 0 0 0 0 
0 0 0 0 0 0 0 0 0 
0 0 0 0 0 0 0 0 0 
0 0 0 0 0 0 0 0 0 
0 0 0 0 0 0 0 0 0 
0 0 0 0 0 0 0 0 0 
0 0 0 0 0 0 0 0 0 
0 0 0 0 0 0 0 0 0 
0 0 0 0 0 0 0 0 0 
0 0 0 0 0 0 0 0 0 
0 0 0 0 0 0 0 0 0 
0 0 0 0 0 0 0 0 0 
0 0 0 0 0 0 0 0 0 
0 0 0 0 0 0 0 0 0 
0 0 0 0 0 0 0 0 0 
0 0 0 0 0 0 0 0 0 
0 0 0 0 0 0 0 0 0 
0 0 0 0 0 0 0 0 0 
0 0 0 0 0 0 0 0 0 
0 0 0 0 0 0 0 0 0 
0 0 0 0 0 0 0 0 0 
0 0 0 0 0 0 0 0 0 
0 0 0 0 0 0 0 0 0 
0 0 0 0 0 0 0 0 0 
0 0 0 0 0 0 0 0 0 
0 0 0 0 0 0 0 0 0 
0 0 0 0 0 0 0 0 0 
0 0 0 0 0 0 0 0 0 
0 0 0 0 0 0 0 0 0 
0 0 0 0 0 0 0 0 0 
0 0 0 0 0 0 0 0 0 
0 0 0 0 0 0 0 0 0 
0 0 0 0 0 0 0 0 0 
0 0 0 0 0 0 0 0 0 
0 0 0 0 0 0 0 0 0 
0 0 0 0 0 0 0 0 0 
0 0 0 0 0 0 0 0 0 
0 0 0 0 0 0 0 0 0 
0 0 0 0 0 0 0 0 0 
0 0 0 0 0 0 0 0 0 
0 0 0 0 0 0 0 0 0 
0 0 0 0 0 0 0 0 0 
0 0 0 0 0 0 0 0 0 
0 0 0 0 0 0 0 0 0 
0 0 0 0 0 0 0 0 0 
0 0 0 0 0 0 0 0 0 
0 0 0 0 0 0 0 0 0 
0 0 0 0 0 0 0 0 0 
0 0 0 0 0 0 0 0 0 
0 0 0 0 0 0 0 0 0 
0 0 0 0 0 0 0 0 0 
0 0 0 0 0 0 0 0 0 
0 0 0 0 0 0 0 0 0 
0 0 0 0 0 0 0 0 0 
0 0 0 0 0 0 0 0 0 
0 0 0 0 0 0 0 0 0 
0 0 0 0 0 0 0 0 0 
0 0 0 0 0 0 0 0 0 
0 0 0 0 0 0 0 0 0 
0 0 0 0 0 0 0 0 0 
0 0 0 0 0 0 0 0 0 
0 0 0 0 0 0 0 0 0 
0 0 0 0 0 0 0 0 0 
0 0 0 0 0 0 0 0 0 
0 0 0 0 0 0 0 0 0 
0 0 0 0 0 0 0 0 0 
0 0 0 0 0 0 0 0 0 
0 0 0 0 0 0 0 0 0 
0 0 0 0 0 0 0 0 0 
0 0 0 0 0 0 0 0 0 
0 0 0 0 0 0 0 0 0 
0 0 0 0 0 0 0 0 0 
0 0 0 0 0 0 0 0 0 
0 0 0 0 0 0 0 0 0 
0 0 0 0 0 0 0 0 0 
0 0 0 0 0 0 0 0 0 
0 0 0 0 0 0 0 0 0 
0 0 0 0 0 0 0 0 0 
0 0 0 0 0 0 0 0 0 
0 0 0 0 0 0 0 0 0 
0 0 0 0 0 0 0 0 0 
0 0 0 0 0 0 0 0 0 
0 0 0 0 0 0 0 0 0 
0 0 0 0 0 0 0 0 0 
0 0 0 0 0 0 0 0 0 
0 0 0 0 0 0 0 0 0 
0 0 0 0 0 0 0 0 0 
0 0 0 0 0 0 0 0 0 
0 0 0 0 0 0 0 0 0 
0 0 0 0 0 0 0 0 0 
0 0 0 0 0 0 0 0 0 
0 0 0 0 0 0 0 0 0 
0 0 0 0 0 0 0 0 0 
0 0 0 0 0 0 0 0 0 
0 0 0 0 0 0 0 0 0 
0 0 0 0 0 0 0 0 0 
0 0 0 0 0 0 0 0 0 
0 0 0 0 0 0 0 0 0 
0 0 0 0 0 0 0 0 0 
0 0 0 0 0 0 0 0 0 
0 0 0 0 0 0 0 0 0 
0 0 0 0 0 0 0 0 0 
0 0 0 0 0 0 0 0 0 
0 0 0 0 0 0 0 0 0 
0 0 0 0 0 0 0 0 0 
0 0 0 0 0 0 0 0 0 
0 0 0 0 0 0 0 0 0 
0 0 0 0 0 0 0 0 0 
0 0 0 0 0 0 0 0 0 
0 0 0 0 0 0 0 0 0 
0 0 0 0 0 0 0 0 0 
0 0 0 0 0 0 0 0 0 
0 0 0 0 0 0 0 0 0 
0 0 0 0 0 0 0 0 0 
0 0 0 0 0 0 0 0 0 
0 0 0 0 0 0 0 0 0 
0 0 0 0 0 0 0 0 0 
0 0 0 0 0 0 0 0 0 
0 0 0 0 0 0 0 0 0 
0 0 0 0 0 0 0 0 0 
0 0 0 0 0 0 0 0 0 
0 0 0 0 0 0 0 0 0 
0 0 0 0 0 0 0 0 0 
0 0 0 0 0 0 0 0 0 
0 0 0 0 0 0 0 0 0 
0 0 0 0 0 0 0 0 0 
0 0 0 0 0 0 0 0 0 
0 0 0 0 0 0 0 0 0 
0 0 0 0 0 0 0 0 0 
0 0 0 0 0 0 0 0 0 
0 0 0 0 0 0 0 0 0 
0 0 0 0 0 0 0 0 0 
0 0 0 0 0 0 0 0 0 
0 0 0 0 0 0 0 0 0 
0 0 0 0 0 0 0 0 0 
0 0 0 0 0 0 0 0 0 
0 0 0 0 0 0 0 0 0 
0 0 0 0 0 0 0 0 0 
0 0 0 0 0 0 0 0 0 
0 0 0 0 0 0 0 0 0 
0 0 0 0 0 0 0 0 0 
0 0 0 0 0 0 0 0 0 
0 0 0 0 0 0 0 0 0 
0 0 0 0 0 0 0 0 0 
0 0 0 0 0 0 0 0 0 
0 0 0 0 0 0 0 0 0 
0 0 0 0 0 0 0 0 0 
0 0 0 0 0 0 0 0 0 
0 0 0 0 0 0 0 0 0 
0 0 0 0 0 0 0 0 0 
0 0 0 0 0 0 0 0 0 
0 0 0 0 0 0 0 0 0 
0 0 0 0 0 0 0 0 0 
0 0 0 0 0 0 0 0 0 
0 0 0 0 0 0 0 0 0 
0 0 0 0 0 0 0 0 0 
0 0 0 0 0 0 0 0 0 
0 0 0 0 0 0 0 0 0 
0 0 0 0 0 0 0 0 0 
0 0 0 0 0 0 0 0 0 
0 0 0 0 0 0 0 0 0 
0 0 0 0 0 0 0 0 0 
0 0 0 0 0 0 0 0 0 
0 0 0 0 0 0 0 0 0 
0 0 0 0 0 0 0 0 0 
0 0 0 0 0 0 0 0 0 
0 0 0 0 0 0 0 0 0 
0 0 0 0 0 0 0 0 0 
0 0 0 0 0 0 0 0 0 
0 0 0 0 0 0 0 0 0 
0 0 0 0 0 0 0 0 0 
0 0 0 0 0 0 0 0 0 
0 0 0 0 0 0 0 0 0 
0 0 0 0 0 0 0 0 0 
0 0 0 0 0 0 0 0 0 
0 0 0 0 0 0 0 0 0 
0 0 0 0 0 0 0 0 0 
0 0 0 0 0 0 0 0 0 
0 0 0 0 0 0 0 0 0 
0 0 0 0 0 0 0 0 0 
0 0 0 0 0 0 0 0 0 
0 0 0 0 0 0 0 0 0 
0 0 0 0 0 0 0 0 0 
0 0 0 0 0 0 0 0 0 
0 0 0 0 0 0 0 0 0 
0 0 0 0 0 0 0 0 0 
0 0 0 0 0 0 0 0 0 
0 0 0 0 0 0 0 0 0 
0 0 0 0 0 0 0 0 0 
0 0 0 0 0 0 0 0 0 
0 0 0 0 0 0 0 0 0 
0 0 0 0 0 0 0 0 0 
0 0 0 0 0 0 0 0 0 
0 0 0 0 0 0 0 0 0 
0 0 0 0 0 0 0 0 0 
0 0 0 0 0 0 0 0 0 
0 0 0 0 0 0 0 0 0 
0 0 0 0 0 0 0 0 0 
0 0 0 0 0 0 0 0 0 
0 0 0 0 0 0 0 0 0 
0 0 0 0 0 0 0 0 0 
0 0 0 0 0 0 0 0 0 
0 0 0 0 0 0 0 0 0 
0 0 0 0 0 0 0 0 0 
0 0 0 0 0 0 0 0 0 
0 0 0 0 0 0 0 0 0 
0 0 0 0 0 0 0 0 0 
0 0 0 0 0 0 0 0 0 
0 0 0 0 0 0 0 0 0 
0 0 0 0 0 0 0 0 0 
0 0 0 0 0 0 0 0 0 
0 0 0 0 0 0 0 0 0 
0 0 0 0 0 0 0 0 0 
0 0 0 0 0 0 0 0 0 
0 0 0 0 0 0 0 0 0 
0 0 0 0 0 0 0 0 0 
0 0 0 0 0 0 0 0 0 
0 0 0 0 0 0 0 0 0 
0 0 0 0 0 0 0 0 0 
0 0 0 0 0 0 0 0 0 
0 0 0 0 0 0 0 0 0 
0 0 0 0 0 0 0 0 0 
0 0 0 0 0 0 0 0 0 
0 0 0 0 0 0 0 0 0 
0 0 0 0 0 0 0 0 0 
0 0 0 0 0 0 0 0 0 
0 0 0 0 0 0 0 0 0 
0 0 0 0 0 0 0 0 0 
0 0 0 0 0 0 0 0 0 
0 0 0 0 0 0 0 0 0 
0 0 0 0 0 0 0 0 0 
0 0 0 0 0 0 0 0 0 
0 0 0 0 0 0 0 0 0 
0 0 0 0 0 0 0 0 0 
0 0 0 0 0 0 0 0 0 
0 0 0 0 0 0 0 0 0 
0 0 0 0 0 0 
v 3 965 double
0 0 0.286338 0 0 -3.90705 0 0 -3.95488 
0 0 -3.17302 0.190212 0.0344681 -3.82775 0 0 0.262902 
0 0 0.387471 0 0 -4.07554 0 0 -3.39865 
0 0 -3.40576 0 0 -4.01594 0 0 -4.03238 
0 0 -3.61349 0 0 -3.43544 0 0 -4.00761 
0 0 -4.1035 0 0 -4.18541 0 0 -4.31687 
0 0 -4.39167 0 0 -3.5691 0 0 -3.99559 
0 0 -4.37376 0 0 -4.19375 0 0 -4.00932 
0 0 -3.16051 0 0 -3.26376 0 0 -4.08756 
0 0 -2.93415 0 0 -4.28989 0 0 -4.3176 
0 0 -3.34568 0 0 -3.84451 0 0 -3.98823 
0 0 -3.89602 0 0 -3.73096 0 0 -3.21079 
0 0 -4.04832 0 0 -3.94016 0 0 -4.24059 
0 0 -3.19583 0 0 -4.05886 0 0 -3.38541 
0 0 -3.04181 0 0 -3.70399 0 0 -3.43617 
0 0 -4.1344 0 0 -3.29859 0 0 -3.79546 
0 0 -2.86621 -0.00273215 0.00426215 -2.8275 0 0 -2.62317 
0.063652 -0.0356487 -2.52357 0 0 -2.43335 0 0 -2.00195 
0 0 -2.64524 -0.247426 -0.309737 -1.49416 0 0 -4.21877 
0 0 -4.22097 0 0 -2.79558 -0.0409797 -0.302151 -3.14628 
0 0 -3.11735 0 0 -2.11624 0.039888 -0.0622251 -2.8881 
-0.122629 0.0866975 -4.01301 0 0 -2.59913 0 0 -2.13267 
0 0 -1.88055 0 0 -1.86559 -0.426167 0.0812885 -2.28645 
0 0 -3.84378 0 0 -4.19056 0 0 -1.41482 
0 0 -0.368586 -0.336403 0.383703 -3.04289 0 0 -2.36149 
0 0 -2.12752 -1.0649 -0.398517 -2.88324 0 0 -3.10778 
-0.169904 0.188055 -2.86708 0.155197 -0.422516 -1.35247 0 0 -0.777663 
0.121254 0.0161244 -3.3128 0.0987647 -0.251333 -3.25257 0 0 -1.61446 
-0.113143 0.133535 -3.75277 0 0 -2.89074 -0.148731 -0.131375 -2.8652 
0 0 -3.37094 0 0 -0.0644762 0.125559 0.144424 -2.90258 
0.423824 0.243313 -3.32848 0.0325719 -0.13726 -3.64753 -0.0410424 0.00821622 -2.9897 
0.067071 0.0349264 -2.13652 -0.0984172 -0.0512496 -2.29516 -0.799317 -0.188055 -3.13782 
0.403467 0.314011 -3.37419 0.130644 -0.431196 -2.62765 -0.41708 0.194615 -2.79071 
0 0 -0.679808 0.193926 -0.0904886 -2.72681 -0.739863 0.0271059 -2.55609 
0 0 -0.260676 -0.135486 -0.333994 -3.11104 0 0 -0.173612 
0.150599 0.301857 -2.70308 0 0 -3.07222 0.111611 -0.0279499 -3.06747 
-0.012008 -0.0419599 -3.44785 -0.466317 0.257706 -3.53581 0 0 -3.98431 
0 0 -2.16578 -0.152559 0.798005 -3.13424 0 0 -1.80502 
0 0 -1.14456 0 0 -2.51134 0 0 -0.953507 
-0.776062 0.503595 -2.83656 0 0 -0.895628 0 0 -2.61679 
-0.108428 -0.142562 -2.3706 0 0 -4.20675 0 0 -3.21054 
0 0 -3.09331 -0.0377217 0.0345699 -2.63052 0.121526 -0.511079 -3.56928 
0.0257186 -0.0235697 -2.65834 0.18535 -0.0473065 -3.31465 0 0 -2.87946 
0.165215 0.0434942 -2.02555 0 0 -1.12396 -0.178288 0.749788 -1.68781 
-0.0247212 0.00454176 -2.54167 0 0 -0.77423 0.416308 -0.0772258 -3.63747 
0 0 -3.59755 0 0 -0.433087 -0.201277 -0.0446964 -3.93125 
0 0 -2.77179 0.186311 0.109167 -3.05515 0 0 -3.78541 
-0.086568 -0.0507235 -3.64188 0 0 -3.98308 0 0 -3.29638 
0 0 -2.25995 0.0230887 -0.0369038 -1.29265 -0.156672 0.250417 -1.60859 
-0.339372 -0.0877807 -3.68172 -0.359903 0.0361096 -1.38295 0.272135 0.178165 -1.80822 
0 0 -4.02232 0 0 -1.63138 0.0733044 0.0189606 -3.80983 
-0.0101659 -0.1634 -3.3658 0.0453228 -0.0283241 -3.20406 0 0 -4.28645 
0 0 -2.54346 0 0 -2.81103 0.108364 0.228124 -3.21847 
0 0 -4.01643 -0.387571 0.0178955 -2.71035 0 0 -1.3594 
-0.322916 -0.153282 -3.40758 0 0 -1.00305 -0.554869 -0.293933 -1.22581 
0.0935682 0.0207782 -3.34512 0 0 -3.61692 -0.398937 -0.0163093 -1.73195 
0 0 -0.138296 0.0612203 0.0454207 -2.37048 -0.0114826 -0.0125648 -2.44961 
-0.0545931 0.0590972 -3.41461 0 0 -1.63898 0 0 -2.90864 
0.0801077 -0.0867168 -1.34714 0 0 -4.31834 0 0 -1.14652 
0.0149068 0.0172222 -3.28147 -0.0938357 -0.179619 -2.97116 -0.0432952 -0.199506 -1.2798 
0.206104 -0.225508 -1.78179 0.136573 0.629337 -1.48303 0.0234964 -0.0458546 -3.30422 
0.217437 0.247939 -2.95257 0.0272146 0.156887 -2.95516 0 0 -4.22024 
0 0 -3.15634 0.306706 0.20531 -1.88116 0 0 -3.89675 
0 0 -4.01717 0 0 -3.64586 0 0 -0.333025 
0 0 -0.103716 0 0 -2.61557 0 0 -2.18761 
0 0 -2.05542 0.499294 0.384213 -3.92385 0.0338803 -0.251478 -1.59679 
-0.257967 -0.00740146 -3.7198 0 0 -3.5149 -0.140862 0.175224 -2.71619 
0 0 -3.61324 0 0 -2.19864 0.484851 -0.0963928 -2.35924 
0.149843 0.328059 -2.66507 0.541028 -0.0358604 -3.10106 0.0926181 0.0980514 -1.85386 
0 0 -3.37928 0.203123 0.246317 -3.54548 -0.641175 -0.777521 -2.95775 
-0.041513 0.0130125 -2.01152 -0.246035 -0.259592 -3.23134 0.231837 0.0753372 -2.12074 
-0.0487394 -0.442601 -1.70678 -0.148273 -0.0710049 -1.91269 0.00489257 0.0444293 -1.52379 
0 0 -1.41678 0 0 -4.20871 0 0 -0.806848 
0 0 -0.732292 -0.00033587 0.0219317 -1.79545 0.00912896 -0.156072 -2.70109 
0 0 -1.60563 0 0 -4.01766 0.0273997 -0.151065 -3.62723 
0 0 -3.35671 0 0 -2.21483 0 0 -1.91955 
0 0 -1.89919 0 0 -1.40207 0 0 -1.29269 
0 0 -2.50569 0 0 -0.712427 0 0 -0.657736 
0 0 -3.40306 0 0 -3.06977 -0.0796145 -0.117422 -3.3869 
0 0 -2.1854 0 0 -1.84867 0.686954 -0.104307 -2.51568 
0 0 -1.45872 0 0 -1.35449 0 0 -1.82488 
-0.239793 0.165921 -3.61483 0.00821862 0.0634088 -2.18736 0 0 -2.13291 
0 0 -4.08731 0 0 -3.5019 0.00615759 0.014853 -3.12937 
-0.0401972 0.221623 -3.37458 0 0 -2.74776 0 0 -3.84966 
0 0 -1.7182 -0.039724 -0.0484978 -3.9419 0 0 -1.28509 
0 0 -4.06303 -0.132199 0.0543887 -3.19109 0.50182 0.150775 -2.19401 
0.0286358 -0.0491778 -3.12479 -0.415359 0.153975 -1.64695 0.00858598 0.0104823 -3.81412 
0 0 -0.243018 0.0282287 -0.237856 -2.8245 0 0 -2.89294 
0 0 -3.858 0 0 -4.21582 0 0 -3.18798 
-0.189328 -0.0277932 -1.85301 0 0 -1.65688 -0.0951884 0.0250945 -1.97088 
0.27769 0.0407646 -4.20271 0 0 -3.53133 -0.0788241 0.266995 -1.09867 
0 0 -3.57989 0 0 -3.05775 0 0 -2.96701 
-0.0438626 -0.0765574 -2.48014 0 0 -2.077 0.544456 -0.386311 -2.00637 
0 0 -3.6363 0.168706 0.253945 -3.64117 0 0 -0.718803 
-0.606728 -0.119901 -2.8443 0.19598 -0.0340436 -2.4507 -0.0169437 -0.0255045 -3.62122 
0 0 -3.23899 0 0 -2.61925 0 0 -2.50103 
0 0 -2.44904 -0.111151 -0.0725713 -1.8553 0 0 -3.23875 
0 0 -1.29367 0.428519 0.118181 -1.81482 -0.268847 -0.296442 -3.35166 
-0.199245 -0.0549496 -2.35657 0 0 -0.607705 0 0 -0.174839 
0 0 -0.164293 -0.00740068 -0.00511694 -2.45385 -0.498929 -0.00122107 -2.43907 
0 0 -2.06253 0.0589 -0.148849 -1.95189 0.0502472 0.0347416 -2.50035 
-0.0127224 0.0321515 -1.59003 0 0 -3.62011 0 0 -1.47491 
0.0807472 -0.0466482 -3.41749 -0.312652 0.0796898 -3.77339 0 0 -0.9952 
0 0 -0.949093 -0.0489942 0.31776 -3.58297 0.0460625 -0.0117406 -3.73307 
0 0 -0.260186 0 0 -4.17143 0 0 -1.72359 
-0.123186 0.075555 -2.0109 0.319951 0.282615 -2.97811 -0.0542656 -0.0547664 -3.1641 
0 0 -2.6938 0.224807 0.300672 -2.47099 0 0 -3.05702 
0 0 -1.48251 -0.0413814 -0.0984192 -3.06276 0.239053 0.15608 -2.76536 
0 0 -2.55867 -0.532505 -0.280361 -3.49207 -0.0589295 -0.174941 -1.63951 
0 0 -3.72974 -0.134429 0.120639 -3.83158 -0.227448 -0.0201109 -3.37826 
0 0 -2.65211 0.029538 -0.175715 -1.54997 0.3629 0.191065 -2.58385 
0.186022 -0.301706 -3.40838 -0.00638269 0.0379692 -1.59343 0 0 -4.09859 
-0.823312 0.139244 -2.6749 0 0 -3.41287 0.382885 -0.0647562 -3.37225 
0 0 -4.16923 0.071362 0.174288 -3.47015 0 0 -3.50239 
0 0 -4.2271 0 0 -2.82158 0 0 -1.8938 
0 0 -1.74027 0 0 -2.68424 0.0262009 -0.24712 -2.14251 
-0.700498 0.950574 -2.14225 0.0450457 -0.520427 -1.37265 -0.287462 -0.000343567 -3.92271 
0.375173 -0.338185 -1.88259 0.0805809 0.63951 -3.42473 -0.438647 -0.298965 -2.05167 
-0.0488832 0.0979747 -3.17414 -0.521515 -0.137293 -2.0163 0 0 -2.70655 
0.575732 -0.309857 -2.76845 0 0 -1.74444 0.0996689 0.0990266 -2.16439 
0.0784773 -0.695952 -1.76872 0 0 -1.23334 0.0981327 0.413126 -2.23876 
-0.256865 -0.0830784 -1.27652 0.197473 -0.355371 -3.22884 0 0 -0.110583 
-0.395826 0.514762 -1.07997 0 0 -2.3301 0 0 -1.7773 
-0.332499 -0.222076 -2.21789 0.332499 0.222076 -2.92691 0 0 -1.69416 
0 0 -1.21691 0 0 -1.03959 -0.0739651 -0.0511723 -0.799054 
0.0632046 -0.0354897 -0.932577 -0.274229 -0.0440209 -1.17426 0 0 -0.592009 
0 0 -0.497097 0 0 -1.62108 0.0233381 -1.48885 -2.35226 
0.264072 -0.0121931 -2.76389 0 0 -3.15929 0 0 -2.87136 
0.271874 0.0111148 -2.2053 -0.201 0.200289 -2.73002 -0.510305 0.149276 -2.37771 