ITEM: TIMESTEP
390000
ITEM: NUMBER OF ATOMS
3073
ITEM: BOX BOUNDS mm mm mm
-2.4e-06 0.0240024
-7.8e-06 0.0780078
-3e-06 0.030003
ITEM: ATOMS id type x y z radius 
291 1 0.00395544 0.00208595 0.0214994 0.0015 
368 1 0.000499542 0.00173022 0.0204995 0.0005 
784 1 0.00585387 0.0039804 0.02075 0.00075 
32 1 0.00570962 0.000703443 0.0205 0.0005 
241 1 0.00556478 0.00279006 0.0205 0.0005 
815 1 0.00325735 0.000500623 0.0205 0.0005 
448 1 0.00455251 0.00374318 0.0205 0.0005 
300 1 0.00050114 0.000508682 0.0205 0.0005 
442 1 0.00156044 0.00266414 0.0210001 0.001 
816 1 0.006437 0.0054244 0.0205 0.0005 
710 1 0.00472787 0.000513288 0.0205 0.0005 
527 1 0.000757295 0.00501731 0.0205 0.0005 
100 1 0.00618452 0.00305844 0.0217079 0.0005 
153 1 0.00573375 0.00175183 0.0205 0.0005 
722 1 0.00210698 0.00605079 0.0205 0.0005 
864 1 0.00627487 0.00146689 0.0212912 0.0005 
503 1 0.000513267 0.00361486 0.0205 0.0005 
561 1 0.00675369 0.00249192 0.02075 0.00075 
501 1 0.00685956 0.000675471 0.0214695 0.0005 
64 1 0.00683103 0.0068788 0.0209999 0.001 
954 1 0.00668871 0.000499996 0.0205 0.0005 
587 1 0.000504084 0.00148454 0.0214683 0.0005 
370 1 0.00781096 0.00142777 0.0207499 0.00075 
28 1 0.00206117 0.000828066 0.0207514 0.00075 
220 1 0.00794726 0.000749967 0.022081 0.00075 
2736 1 0.00267377 0.00396204 0.0205 0.0005 
998 1 0.000879246 0.00629537 0.0207995 0.00075 
842 1 0.00674625 0.00638288 0.0224129 0.0005 
2924 1 0.0022146 0.0050088 0.0205026 0.0005 
390 1 0.00236192 0.00313741 0.0221779 0.0005 
151 1 0.00127205 0.000764203 0.0221507 0.00075 
1778 1 0.00145351 0.00684595 0.0221261 0.0005 
486 1 0.00406913 0.00573103 0.0224083 0.00225 
2921 1 0.000535924 0.00183082 0.0224056 0.0005 
307 1 0.00848808 0.00244861 0.0205 0.0005 
870 1 0.00821915 0.00654089 0.0205 0.0005 
324 1 0.0082657 0.00444123 0.0219998 0.002 
1195 1 0.00890539 0.00182472 0.0214214 0.0005 
121 1 0.00921912 0.00655834 0.0205 0.0005 
228 1 0.0098274 0.00569149 0.0205 0.0005 
490 1 0.0102372 0.00477929 0.0205 0.0005 
199 1 0.0117768 0.00357124 0.0205 0.0005 
395 1 0.010845 0.0029903 0.0204999 0.0005 
474 1 0.014029 0.00192363 0.0207497 0.00075 
282 1 0.0105743 0.00159006 0.0204999 0.0005 
590 1 0.00971492 0.00050008 0.0205012 0.0005 
176 1 0.0137809 0.000500003 0.0205 0.0005 
289 1 0.0114769 0.000502223 0.0205 0.0005 
362 1 0.00867412 0.000504034 0.0205 0.0005 
783 1 0.0111344 0.0043377 0.0205 0.0005 
51 1 0.0133849 0.00313842 0.0205 0.0005 
233 1 0.00973205 0.0024791 0.02075 0.00075 
217 1 0.0111016 0.00533717 0.0205 0.0005 
549 1 0.0105945 0.00514817 0.021359 0.0005 
126 1 0.0127961 0.00497198 0.0214997 0.0015 
676 1 0.0105623 0.000749929 0.0214253 0.00075 
209 1 0.0140659 0.00614991 0.0204999 0.0005 
730 1 0.00904659 0.00146281 0.0205 0.0005 
764 1 0.0108494 0.00689814 0.0212499 0.00125 
311 1 0.0146557 0.00672161 0.0217548 0.001 
763 1 0.0101534 0.00376297 0.0205 0.0005 
66 1 0.014537 0.00499816 0.0205 0.0005 
61 1 0.0150271 0.00587442 0.0205 0.0005 
108 1 0.0151201 0.00352338 0.0212498 0.00125 
89 1 0.00921331 0.000506483 0.0213748 0.0005 
155 1 0.0120952 0.00202236 0.0212499 0.00125 
178 1 0.0149802 0.000750049 0.02075 0.00075 
364 1 0.0108707 0.00368834 0.0215365 0.00075 
895 1 0.0116503 0.000500536 0.0219905 0.0005 
598 1 0.0130878 0.00050031 0.0212208 0.0005 
161 1 0.02325 0.000749918 0.0207498 0.00075 
159 1 0.0228999 0.00342343 0.0205 0.0005 
204 1 0.0235 0.00545714 0.0205 0.0005 
219 1 0.0215353 0.00100002 0.0209999 0.001 
333 1 0.0232458 0.00442673 0.0211604 0.00075 
142 1 0.0232501 0.00224983 0.0207499 0.00075 
200 1 0.0203127 0.00294141 0.02075 0.00075 
340 1 0.0216029 0.00456258 0.0207499 0.00075 
452 1 0.0235 0.00651687 0.0204999 0.0005 
518 1 0.0197569 0.000749883 0.0207498 0.00075 
185 1 0.016576 0.00555654 0.0212499 0.00125 
31 1 0.0169653 0.00149991 0.0214999 0.0015 
123 1 0.0229191 0.00104105 0.0224432 0.001 
273 1 0.0218808 0.00301754 0.0215231 0.001 
113 1 0.0169662 0.0033501 0.0205 0.0005 
544 1 0.0189301 0.00419397 0.0209999 0.001 
577 1 0.02325 0.00598893 0.021605 0.00075 
652 1 0.0183241 0.00547474 0.0214921 0.0005 
290 1 0.0188552 0.00246355 0.02075 0.00075 
281 1 0.020469 0.00401017 0.0218127 0.00075 
57 1 0.0202936 0.00623162 0.0214996 0.0015 
143 1 0.0223662 0.00604433 0.0205 0.0005 
853 1 0.0182273 0.00555591 0.0205 0.0005 
106 1 0.0221332 0.0054478 0.0214553 0.0005 
1012 1 0.0181157 0.0067233 0.0217777 0.00075 
109 1 0.0185849 0.00654767 0.0205 0.0005 
380 1 0.00544424 0.00715518 0.0204998 0.0005 
256 1 0.00146111 0.00834617 0.0205 0.0005 
75 1 0.00247548 0.0076575 0.02075 0.00075 
887 1 0.00707398 0.00776895 0.0221829 0.0005 
1359 1 0.00373127 0.00818296 0.0205 0.0005 
588 1 0.00468837 0.00787123 0.0205 0.0005 
360 1 0.0067359 0.0126601 0.0205 0.0005 
154 1 0.00523234 0.0092466 0.0207499 0.00075 
13 1 0.00049999 0.00862924 0.0205 0.0005 
879 1 0.00571004 0.00811904 0.0204999 0.0005 
137 1 0.00100647 0.00949162 0.0205 0.0005 
44 1 0.00526533 0.0107856 0.0207499 0.00075 
1166 1 0.00596786 0.00822344 0.0217185 0.00075 
1234 1 0.00583907 0.00950741 0.0218116 0.0005 
323 1 0.00292407 0.010066 0.0219997 0.002 
820 1 0.000960129 0.0104907 0.0205 0.0005 
1067 1 0.007776 0.012848 0.0205 0.0005 
713 1 0.00269207 0.0120519 0.0204997 0.0005 
881 1 0.000500188 0.0113787 0.0205 0.0005 
943 1 0.00415701 0.011803 0.0205 0.0005 
673 1 0.0054159 0.0122778 0.0207498 0.00075 
174 1 0.00135093 0.012509 0.0209999 0.001 
447 1 0.00620095 0.00999572 0.0204997 0.0005 
737 1 0.00575127 0.0134558 0.0205 0.0005 
508 1 0.000499974 0.0136385 0.0205 0.0005 
872 1 0.00762457 0.0116246 0.0207499 0.00075 
891 1 0.00669584 0.00828646 0.0204999 0.0005 
1190 1 0.00540235 0.0102956 0.0222526 0.0005 
479 1 0.000502783 0.0135934 0.0215956 0.0005 
911 1 0.00489216 0.0115853 0.0216831 0.0005 
35 1 0.00782555 0.00954019 0.021573 0.0015 
2621 1 0.0063508 0.0114329 0.0205 0.0005 
1032 1 0.00612856 0.0106015 0.0216353 0.0005 
1085 1 0.000751713 0.0116951 0.0224366 0.00075 
742 1 0.000500371 0.0103468 0.0213772 0.0005 
274 1 0.00786296 0.00784579 0.0205 0.0005 
427 1 0.00494617 0.00859984 0.0223333 0.0005 
1407 1 0.0007763 0.00787646 0.0214588 0.00075 
401 1 0.00657357 0.0121324 0.0223739 0.00125 
1617 1 0.00194393 0.0077255 0.0218792 0.0005 
2240 1 0.0018659 0.0122966 0.0223926 0.0005 
581 1 0.0126438 0.00713487 0.0221009 0.00075 
171 1 0.0132948 0.00716904 0.02075 0.00075 
1070 1 0.00824348 0.00735409 0.0219172 0.00075 
636 1 0.0122073 0.00773478 0.0205 0.0005 
275 1 0.014722 0.00827379 0.02075 0.00075 
46 1 0.00908569 0.0077758 0.0207499 0.00075 
556 1 0.0139154 0.00953936 0.02075 0.00075 
287 1 0.010821 0.0109018 0.0205 0.0005 
865 1 0.0136893 0.0122429 0.0204997 0.0005 
756 1 0.0117952 0.00946866 0.0214998 0.0015 
318 1 0.0136397 0.00821224 0.0217866 0.00075 
686 1 0.00949281 0.00894842 0.0205 0.0005 
10 1 0.0157254 0.00899032 0.0205 0.0005 
569 1 0.0126896 0.0110682 0.0205 0.0005 
252 1 0.0086886 0.010991 0.0205 0.0005 
188 1 0.0151041 0.0131852 0.0215529 0.0015 
772 1 0.0127024 0.0120835 0.0204998 0.0005 
709 1 0.00980862 0.0102114 0.0207497 0.00075 
1061 1 0.0117789 0.0115615 0.0205 0.0005 
1118 1 0.00967916 0.0101659 0.0219921 0.0005 
59 1 0.0118429 0.0125941 0.0204998 0.0005 
974 1 0.0118349 0.0137154 0.0205 0.0005 
734 1 0.0130053 0.013272 0.0207495 0.00075 
968 1 0.0123758 0.0116394 0.0216215 0.00075 
62 1 0.00984429 0.0126604 0.0219998 0.002 
1238 1 0.0103235 0.00839076 0.0205 0.0005 
1028 1 0.0139142 0.0110393 0.02075 0.00075 
1653 1 0.0146573 0.00955364 0.021756 0.0005 
80 1 0.0155644 0.0105102 0.0209999 0.001 
810 1 0.0096017 0.00821805 0.0220869 0.00075 
1080 1 0.0140716 0.0112797 0.0222222 0.00075 
192 1 0.0159272 0.00738084 0.0207496 0.00075 
1883 1 0.0150184 0.0104772 0.0223966 0.0005 
1056 1 0.0160316 0.0114407 0.022083 0.0005 
714 1 0.0161559 0.011804 0.0205 0.0005 
1922 1 0.0165701 0.00844812 0.0205 0.0005 
6 1 0.0224558 0.00747216 0.0209998 0.001 
190 1 0.0174179 0.00756424 0.02075 0.00075 
1846 1 0.016625 0.00944669 0.0205 0.0005 
342 1 0.0171331 0.0126384 0.0207497 0.00075 
319 1 0.021075 0.00777752 0.0204999 0.0005 
293 1 0.0189 0.0111801 0.0217495 0.00175 
735 1 0.0208485 0.010084 0.0214905 0.0005 
308 1 0.0201524 0.0088492 0.021 0.001 
49 1 0.0172677 0.0102396 0.0205 0.0005 
146 1 0.0193484 0.00768333 0.0205 0.0005 
578 1 0.023 0.00939671 0.0209998 0.001 
90 1 0.0186383 0.00809227 0.0214439 0.00075 
71 1 0.0216765 0.00865622 0.0205 0.0005 
659 1 0.0178207 0.00914643 0.02075 0.00075 
967 1 0.0169993 0.0112033 0.0205 0.0005 
130 1 0.0210909 0.0122919 0.0205 0.0005 
41 1 0.0217278 0.0105748 0.02075 0.00075 
231 1 0.0234998 0.0107225 0.0205 0.0005 
279 1 0.0235 0.00821606 0.0217783 0.0005 
693 1 0.0212101 0.00800327 0.021645 0.0005 
725 1 0.0227252 0.011695 0.0207498 0.00075 
697 1 0.0205606 0.0102032 0.0205 0.0005 
330 1 0.022378 0.0131542 0.0207498 0.00075 
800 1 0.0207731 0.0113432 0.0205 0.0005 
538 1 0.0234978 0.0126502 0.0205 0.0005 
1236 1 0.0179457 0.0134535 0.0220844 0.0005 
812 1 0.0215709 0.0124453 0.0213889 0.0005 
944 1 0.0235 0.0138652 0.0214766 0.0005 
794 1 0.0170592 0.0130139 0.0219396 0.0005 
592 1 0.0183154 0.0129585 0.0205 0.0005 
910 1 0.0215648 0.00918289 0.021978 0.00075 
523 1 0.0188238 0.0140417 0.0205 0.0005 
956 1 0.0193179 0.0130049 0.0205 0.0005 
639 1 0.022546 0.0141704 0.0214582 0.0005 
1899 1 0.0166732 0.0116363 0.0213403 0.0005 
1138 1 0.0225772 0.0107925 0.0219669 0.00075 
272 1 0.0235 0.0136502 0.0205 0.0005 
770 1 0.0235001 0.0116011 0.0217259 0.0005 
1517 1 0.0212003 0.0115165 0.0213877 0.0005 
1498 1 0.0186819 0.0134486 0.0212925 0.0005 
1575 1 0.0217938 0.00800107 0.0224571 0.0005 
2494 1 0.0189214 0.0133653 0.022285 0.0005 
296 1 0.0037742 0.0142912 0.0222497 0.00225 
646 1 0.00140337 0.0142751 0.0205 0.0005 
521 1 0.00103383 0.0143465 0.0219948 0.0005 
439 1 0.00712973 0.0142983 0.0212499 0.00125 
196 1 0.000543723 0.0144505 0.0210821 0.0005 
782 1 0.000500063 0.0151647 0.0217806 0.0005 
70 1 0.000499988 0.0152624 0.0205 0.0005 
888 1 0.00329271 0.0164857 0.0205 0.0005 
550 1 0.00268217 0.0173334 0.0205002 0.0005 
1 1 0.00754243 0.0163439 0.02075 0.00075 
529 1 0.00125476 0.0166518 0.0212498 0.00125 
269 1 0.00694291 0.0184355 0.0212499 0.00125 
19 1 0.00460902 0.0175396 0.0212497 0.00125 
1077 1 0.00605853 0.0169006 0.0205 0.0005 
1004 1 0.00592262 0.0200814 0.0207499 0.00075 
688 1 0.000499999 0.0202909 0.0205 0.0005 
896 1 0.00700594 0.0207829 0.0205 0.0005 
1660 1 0.00504236 0.0190806 0.0205 0.0005 
972 1 0.006078 0.0159966 0.0213636 0.00075 
223 1 0.00364753 0.0203532 0.0217499 0.00175 
315 1 0.00268952 0.0180117 0.0215539 0.00075 
576 1 0.000749977 0.0185214 0.02075 0.00075 
1094 1 0.00605794 0.0199413 0.0223304 0.00075 
1884 1 0.000506309 0.0199828 0.0214513 0.0005 
430 1 0.00197098 0.0183793 0.0205 0.0005 
1829 1 0.00616335 0.0170133 0.0220862 0.0005 
1388 1 0.000749981 0.0208036 0.0224665 0.00075 
1696 1 0.00632045 0.0153157 0.0224213 0.0005 
1613 1 0.00257243 0.0167603 0.0223964 0.0005 
1859 1 0.00785172 0.0199923 0.0205 0.0005 
436 1 0.00695983 0.0162026 0.0222753 0.0005 
611 1 0.00884404 0.0144502 0.0205001 0.0005 
110 1 0.0141976 0.0146239 0.0205 0.0005 
2226 1 0.0133729 0.0144392 0.0210345 0.0005 
877 1 0.0103644 0.0199695 0.0205 0.0005 
1570 1 0.00837274 0.01912 0.0205 0.0005 
695 1 0.00824982 0.0156574 0.0222015 0.00075 
54 1 0.00866274 0.0173591 0.0222224 0.001 
118 1 0.0150965 0.0159247 0.0212499 0.00125 
717 1 0.0121989 0.0188815 0.0205 0.0005 
1232 1 0.0111959 0.0145261 0.0205 0.0005 
934 1 0.0134192 0.0194317 0.02075 0.00075 
1310 1 0.0133905 0.0173497 0.0205 0.0005 
1212 1 0.0149009 0.0185031 0.0205005 0.0005 
624 1 0.0117691 0.014262 0.0217193 0.0005 
1035 1 0.0121258 0.0176793 0.0208573 0.0005 
1592 1 0.0122748 0.0198787 0.0205004 0.0005 
1697 1 0.00996533 0.0209203 0.0205 0.0005 
2033 1 0.0130476 0.0203473 0.0215178 0.0005 
1264 1 0.0112086 0.0207338 0.0205 0.0005 
1164 1 0.012406 0.0210967 0.02075 0.00075 
982 1 0.0148628 0.0203509 0.0205 0.0005 
1448 1 0.0129354 0.0182646 0.0207987 0.0005 
2386 1 0.0140471 0.0182145 0.0213683 0.00075 
2420 1 0.0135741 0.0206487 0.0204999 0.0005 
2431 1 0.0146267 0.0175225 0.0205 0.0005 
2287 1 0.0146213 0.0192858 0.0210603 0.0005 
2500 1 0.0151028 0.0200211 0.0215372 0.0005 
2378 1 0.0141761 0.0203171 0.0212262 0.0005 
2447 1 0.0140676 0.019571 0.0222234 0.00075 
2086 1 0.0133837 0.0171624 0.0215179 0.0005 
1311 1 0.0154164 0.0195179 0.0205 0.0005 
2645 1 0.015213 0.0177563 0.0214066 0.0005 
1376 1 0.00896684 0.0198285 0.0211807 0.0005 
2392 1 0.0124582 0.0179711 0.0219063 0.0005 
1757 1 0.01517 0.0209678 0.021853 0.0005 
2594 1 0.0136417 0.0211555 0.0213593 0.0005 
2618 1 0.0152708 0.0173778 0.0223309 0.0005 
2897 1 0.00943571 0.0192658 0.0205 0.0005 
1338 1 0.0156303 0.0178184 0.0205 0.0005 
2978 1 0.00930056 0.0156534 0.0209232 0.00075 
2989 1 0.0113968 0.0195484 0.0208518 0.0005 
2598 1 0.0156478 0.0188294 0.0223602 0.001 
2289 1 0.0132758 0.0184347 0.0223277 0.0005 
3051 1 0.0117497 0.0165883 0.0221156 0.0005 
3061 1 0.0102132 0.0169641 0.021956 0.0005 
350 1 0.0205472 0.0142257 0.0214998 0.0015 
43 1 0.01605 0.0145983 0.0205 0.0005 
78 1 0.0227735 0.0143436 0.0205 0.0005 
2511 1 0.0162483 0.017008 0.0205 0.0005 
2117 1 0.0169802 0.0156907 0.0216326 0.0005 
189 1 0.0166231 0.0155118 0.0205 0.0005 
2460 1 0.0160992 0.0187871 0.0205 0.0005 
139 1 0.0174448 0.0143607 0.0209999 0.001 
1193 1 0.0187072 0.0150521 0.021422 0.0005 
345 1 0.0190818 0.0151491 0.0204999 0.0005 
741 1 0.0179705 0.0156755 0.0217711 0.0005 
450 1 0.0181729 0.0155731 0.0204999 0.0005 
947 1 0.017607 0.0177558 0.0204999 0.0005 
591 1 0.0222722 0.015461 0.02075 0.00075 
465 1 0.0183966 0.0171423 0.0205 0.0005 
719 1 0.0189242 0.0162664 0.0212189 0.00075 
628 1 0.0235001 0.0166519 0.0204999 0.0005 
42 1 0.0223298 0.0170129 0.02075 0.00075 
747 1 0.021115 0.015862 0.0204999 0.0005 
813 1 0.0201194 0.0167643 0.0205 0.0005 
787 1 0.0185616 0.0181287 0.0205 0.0005 
492 1 0.019359 0.0174137 0.0205 0.0005 
238 1 0.0234983 0.017712 0.0204999 0.0005 
1216 1 0.0197913 0.017367 0.0217608 0.00075 
1230 1 0.0173599 0.0164902 0.0207499 0.00075 
566 1 0.0206927 0.0180116 0.0207499 0.00075 
1333 1 0.0211145 0.0168618 0.0205 0.0005 
1091 1 0.0195242 0.0183998 0.0205 0.0005 
1398 1 0.0211173 0.0201717 0.0205 0.0005 
1189 1 0.0235 0.0147951 0.021018 0.0005 
1427 1 0.0198366 0.0158052 0.0204999 0.0005 
898 1 0.0187166 0.0179346 0.0214686 0.0005 
1452 1 0.0200639 0.0194992 0.0207499 0.00075 
1488 1 0.018387 0.0193411 0.02075 0.00075 
1124 1 0.0235 0.0156504 0.0205 0.0005 
1020 1 0.0225 0.0191274 0.0214999 0.0015 
1401 1 0.0214287 0.0164731 0.0221504 0.001 
1298 1 0.0201936 0.0162182 0.021338 0.0005 
1170 1 0.0232482 0.016183 0.0216309 0.00075 
1831 1 0.0177115 0.0184131 0.0212461 0.0005 
957 1 0.023402 0.0208456 0.0204999 0.0005 
1320 1 0.0186842 0.0208139 0.0207497 0.00075 
1598 1 0.0198144 0.0205881 0.0213105 0.0005 
1437 1 0.0235001 0.0208594 0.0214949 0.0005 
1184 1 0.0234994 0.0173937 0.0214479 0.0005 
1692 1 0.0193096 0.0187466 0.0214212 0.0005 
1828 1 0.0180314 0.0172087 0.021528 0.0005 
1202 1 0.0206802 0.0199173 0.0217538 0.0005 
1460 1 0.0208217 0.0208968 0.0216105 0.0005 
1984 1 0.019106 0.0199364 0.0215814 0.0005 
1738 1 0.0172219 0.018864 0.0204999 0.0005 
1648 1 0.0167813 0.0204245 0.0212499 0.00125 
2467 1 0.0166234 0.0179355 0.0205 0.0005 
1963 1 0.0183905 0.0205463 0.0219344 0.0005 
1434 1 0.02325 0.0148213 0.02226 0.00075 
1796 1 0.0198078 0.0194042 0.022055 0.0005 
1105 1 0.0203546 0.0208186 0.0205 0.0005 
1865 1 0.0167172 0.0185044 0.0213169 0.0005 
1767 1 0.0209793 0.0178965 0.0219612 0.0005 
1929 1 0.0205328 0.0188207 0.0216891 0.0005 
2072 1 0.0234997 0.0176553 0.022413 0.0005 
2099 1 0.0199063 0.0161005 0.0222887 0.0005 
838 1 0.0167447 0.0170624 0.0222849 0.001 
678 1 0.00130406 0.0215811 0.0209999 0.001 
700 1 0.00583283 0.0215787 0.02075 0.00075 
1293 1 0.00275791 0.0220917 0.0205 0.0005 
1416 1 0.00376258 0.0222207 0.0205 0.0005 
1578 1 0.00518855 0.0224566 0.0213635 0.0005 
482 1 0.000499945 0.0227444 0.0205 0.0005 
12 1 0.00222224 0.0231931 0.0207498 0.00075 
952 1 0.00637628 0.0250391 0.0205 0.0005 
1439 1 0.00707623 0.024019 0.02075 0.00075 
831 1 0.00516993 0.0239115 0.0209997 0.001 
534 1 0.000892348 0.0239045 0.02075 0.00075 
1423 1 0.00174426 0.0266976 0.0215343 0.0005 
1406 1 0.000826271 0.0262054 0.0205 0.0005 
483 1 0.000500063 0.0271515 0.0205 0.0005 
1483 1 0.00752911 0.0227951 0.0205014 0.0005 
1512 1 0.00329274 0.0256297 0.0204999 0.0005 
752 1 0.00577245 0.0267855 0.0205 0.0005 
1805 1 0.00339959 0.0244022 0.02075 0.00075 
1576 1 0.000501563 0.0250686 0.0205 0.0005 
1373 1 0.00686902 0.0261604 0.02075 0.00075 
1860 1 0.00476194 0.0221846 0.0205 0.0005 
1625 1 0.000500585 0.022965 0.021481 0.0005 
1455 1 0.00191749 0.0253005 0.0209999 0.001 
1942 1 0.00646865 0.0227916 0.0213619 0.00075 
1926 1 0.000500172 0.0242808 0.0218756 0.0005 
1520 1 0.00666097 0.0273967 0.0208723 0.0005 
1143 1 0.00349034 0.0274289 0.02075 0.00075 
2021 1 0.00757928 0.0271582 0.0205 0.0005 
980 1 0.00581688 0.0277847 0.0205 0.0005 
1825 1 0.000500092 0.0256944 0.0212953 0.0005 
2481 1 0.00733164 0.0281271 0.0205 0.0005 
2583 1 0.0042941 0.025778 0.0205034 0.0005 
1893 1 0.00110023 0.0250058 0.022223 0.0005 
2706 1 0.000500241 0.0258037 0.0222893 0.0005 
348 1 0.00262516 0.0265418 0.0205 0.0005 
775 1 0.00528897 0.0259454 0.0219571 0.00125 
1662 1 0.00356628 0.0230623 0.0214032 0.00075 
2168 1 0.0068515 0.0271839 0.0221138 0.00075 
2244 1 0.00165115 0.0267707 0.0205 0.0005 
2852 1 0.00452388 0.026756 0.0205 0.0005 
2884 1 0.00359067 0.0262702 0.0212075 0.0005 
2920 1 0.00581802 0.0275886 0.0215034 0.0005 
1474 1 0.00489406 0.022153 0.0222696 0.0005 
1449 1 0.002271 0.0275564 0.0205 0.0005 
2833 1 0.00413754 0.0272761 0.0218339 0.0005 
2427 1 0.00470141 0.0277531 0.0205 0.0005 
1991 1 0.00647629 0.0240939 0.0221495 0.00075 
2565 1 0.00778361 0.0234242 0.0220486 0.0005 
2449 1 0.00705592 0.0282351 0.0214691 0.0005 
2813 1 0.00113543 0.0275837 0.0221361 0.0005 
1209 1 0.000503332 0.0268044 0.022332 0.0005 
1285 1 0.000751729 0.028351 0.02075 0.00075 
3065 1 0.00480708 0.0278381 0.0223326 0.0005 
600 1 0.00848572 0.0215097 0.0212498 0.00125 
1144 1 0.0100921 0.022222 0.0217651 0.0005 
1577 1 0.0135755 0.0217462 0.0205 0.0005 
1650 1 0.00810586 0.0233579 0.0211017 0.0005 
946 1 0.00815091 0.0251738 0.0219797 0.00125 
904 1 0.00850062 0.0243081 0.0204998 0.0005 
1081 1 0.00826808 0.0263158 0.0205 0.0005 
1343 1 0.0107651 0.0218816 0.02075 0.00075 
1394 1 0.00961642 0.0234387 0.0209999 0.001 
1698 1 0.00968785 0.0255274 0.0207499 0.00075 
1342 1 0.0109119 0.0248517 0.0216326 0.00075 
978 1 0.0104387 0.026495 0.0205 0.0005 
1208 1 0.0104649 0.02457 0.0204999 0.0005 
1350 1 0.0135732 0.0238112 0.0205 0.0005 
919 1 0.00926876 0.0279486 0.0217586 0.00175 
780 1 0.012895 0.0256838 0.0205 0.0005 
353 1 0.014926 0.0238827 0.0204998 0.0005 
1294 1 0.0127987 0.0229241 0.0204999 0.0005 
1180 1 0.0120449 0.022267 0.0205 0.0005 
1462 1 0.0116753 0.0258382 0.0213351 0.0005 
1467 1 0.012339 0.0239815 0.0204999 0.0005 
1552 1 0.013026 0.022232 0.0215157 0.00075 
1602 1 0.0114247 0.026328 0.0205 0.0005 
1621 1 0.012787 0.0253051 0.0216868 0.00075 
861 1 0.0142524 0.0249054 0.0207499 0.00075 
1643 1 0.0119486 0.0253609 0.0205 0.0005 
1539 1 0.0130446 0.0246902 0.0205 0.0005 
1330 1 0.0140569 0.0238424 0.0213783 0.0005 
1192 1 0.0148167 0.0260314 0.0205 0.0005 
1614 1 0.0113407 0.0232689 0.0207504 0.00075 
1693 1 0.0154681 0.0227222 0.0205 0.0005 
1618 1 0.0114615 0.0244875 0.0205 0.0005 
1221 1 0.0142374 0.0227769 0.02075 0.00075 
1915 1 0.0137996 0.0261135 0.0204999 0.0005 
1869 1 0.0109124 0.0254659 0.0205038 0.0005 
2193 1 0.0110597 0.0273251 0.0205 0.0005 
2263 1 0.0138865 0.0258636 0.0214642 0.0005 
2270 1 0.0127055 0.027255 0.0212499 0.00125 
1753 1 0.015438 0.0238383 0.0213573 0.0005 
862 1 0.0144678 0.0275138 0.0205 0.0005 
1775 1 0.0143704 0.0219537 0.0216811 0.0005 
2004 1 0.0143589 0.0267061 0.0210793 0.0005 
1958 1 0.0143804 0.0276993 0.0214943 0.0005 
2243 1 0.0156863 0.0269087 0.0207499 0.00075 
1017 1 0.0151031 0.0215519 0.02075 0.00075 
2348 1 0.0147473 0.0230853 0.0218487 0.0005 
1955 1 0.0150679 0.0262398 0.0216082 0.0005 
144 1 0.0159597 0.0251984 0.0209999 0.001 
1563 1 0.0159329 0.0236085 0.0205 0.0005 
2603 1 0.0129094 0.0236008 0.0212277 0.0005 
2121 1 0.0106865 0.026051 0.0213619 0.0005 
2261 1 0.0153705 0.027835 0.0215275 0.0005 
2026 1 0.0111645 0.0267434 0.0219025 0.0005 
2662 1 0.0137601 0.0231176 0.022005 0.0005 
2201 1 0.0120314 0.0243603 0.0213727 0.0005 
1935 1 0.0112472 0.0283075 0.0205 0.0005 
2010 1 0.0133008 0.0241924 0.0219325 0.0005 
1931 1 0.0115112 0.0257118 0.0223133 0.0005 
2419 1 0.0149239 0.0271058 0.0220879 0.0005 
1768 1 0.0159292 0.0281092 0.0205 0.0005 
2097 1 0.00983619 0.0248002 0.022267 0.0005 
2143 1 0.00881638 0.0235799 0.0222609 0.0005 
1837 1 0.0159701 0.0272238 0.0220446 0.0005 
3001 1 0.0122853 0.0214895 0.0223966 0.0005 
2681 1 0.0151238 0.0217641 0.0224748 0.0005 
2411 1 0.0104457 0.0256565 0.0224699 0.0005 
1794 1 0.0161725 0.0226172 0.0218248 0.001 
1219 1 0.0220355 0.0215324 0.0209999 0.001 
152 1 0.0208499 0.0235935 0.0204999 0.0005 
1292 1 0.0171214 0.0239116 0.02075 0.00075 
512 1 0.0190463 0.0268979 0.0205 0.0005 
1288 1 0.016271 0.021921 0.0204999 0.0005 
1048 1 0.0179667 0.0221337 0.0207499 0.00075 
1415 1 0.0215327 0.0228629 0.0205 0.0005 
1087 1 0.0234981 0.0255338 0.0205 0.0005 
1176 1 0.018283 0.0259402 0.02075 0.00075 
1269 1 0.02325 0.0227672 0.02075 0.00075 
1507 1 0.0234999 0.0248088 0.0218536 0.0005 
1574 1 0.0234996 0.0265755 0.0204999 0.0005 
1472 1 0.0232501 0.0242776 0.02075 0.00075 
1590 1 0.0222375 0.0249664 0.0204999 0.0005 
1634 1 0.018617 0.0237922 0.0207497 0.00075 
908 1 0.0222842 0.0235232 0.0205 0.0005 
1646 1 0.0168858 0.0227098 0.0205 0.0005 
1927 1 0.0169817 0.0261773 0.0205 0.0005 
1897 1 0.0178304 0.0231751 0.0218676 0.00075 
1370 1 0.0230705 0.0277244 0.0207498 0.00075 
1243 1 0.0201295 0.0250011 0.0212499 0.00125 
1978 1 0.0173741 0.0251182 0.0205 0.0005 
1881 1 0.0169175 0.0244356 0.0218663 0.0005 
1514 1 0.0198926 0.0223352 0.0212499 0.00125 
1925 1 0.0215989 0.0242241 0.0207026 0.0005 
1527 1 0.0181007 0.0248117 0.0217212 0.00075 
1106 1 0.0174566 0.0276946 0.0212499 0.00125 
1323 1 0.0190321 0.0278978 0.0205 0.0005 
1090 1 0.0223805 0.0261536 0.0217773 0.00125 
1015 1 0.0218002 0.0277581 0.0205 0.0005 
1974 1 0.0235 0.0281779 0.0218324 0.0005 
1267 1 0.0204267 0.0272181 0.0209999 0.001 
2065 1 0.0189728 0.0238863 0.0219443 0.0005 
1910 1 0.0191635 0.0277196 0.0216345 0.0005 
2198 1 0.0235001 0.0273495 0.0223925 0.0005 
2162 1 0.0211802 0.0216622 0.0222253 0.0005 
2008 1 0.0187077 0.0283131 0.0223056 0.0005 
1606 1 0.0187907 0.0263453 0.0224594 0.001 
2303 1 0.0181973 0.0217556 0.0221829 0.00075 
1702 1 0.000500145 0.0283806 0.0219833 0.0005 
1480 1 0.00629128 0.0289139 0.0207499 0.00075 
1103 1 0.00500406 0.0287826 0.0205 0.0005 
138 1 0.00769989 0.0290609 0.0205 0.0005 
162 1 0.000650096 0.0321668 0.0205062 0.0005 
259 1 0.00350303 0.0316662 0.0205004 0.0005 
522 1 0.0018069 0.0337258 0.0207499 0.00075 
337 1 0.00277549 0.0301226 0.02075 0.00075 
638 1 0.00514682 0.0332272 0.0207499 0.00075 
506 1 0.000713474 0.0344083 0.0211518 0.0005 
1084 1 0.00125586 0.0305185 0.0207499 0.00075 
1355 1 0.00310739 0.0336444 0.0205 0.0005 
1451 1 0.00402947 0.0285291 0.0205 0.0005 
412 1 0.00213112 0.0320131 0.0209999 0.001 
1607 1 0.0015356 0.0293261 0.0205 0.0005 
1290 1 0.000501465 0.0295538 0.0205 0.0005 
1761 1 0.00636004 0.0346259 0.0204997 0.0005 
1760 1 0.0038941 0.0330256 0.0204999 0.0005 
1611 1 0.00511722 0.0346792 0.0205 0.0005 
2278 1 0.00277489 0.0284228 0.0205001 0.0005 
2306 1 0.00548671 0.0316475 0.0207499 0.00075 
2343 1 0.00583772 0.0300516 0.0205 0.0005 
2387 1 0.00673343 0.0324814 0.020753 0.00075 
2407 1 0.00409615 0.030715 0.0205 0.0005 
2421 1 0.00630412 0.0336276 0.0204999 0.0005 
672 1 0.00727449 0.0354352 0.020766 0.00075 
2537 1 0.00430194 0.0295347 0.0205 0.0005 
1872 1 0.00732157 0.0305981 0.0212499 0.00125 
1792 1 0.00420793 0.0314909 0.021518 0.00075 
2484 1 0.00562116 0.0307667 0.0216264 0.0005 
2573 1 0.0051751 0.0296095 0.0214712 0.00075 
1993 1 0.00198283 0.0287109 0.0215282 0.00075 
2455 1 0.00751879 0.0332213 0.0214601 0.0005 
2622 1 0.00647135 0.0319948 0.0218741 0.0005 
1291 1 0.000750533 0.0329669 0.0214967 0.00075 
2548 1 0.00306079 0.0309964 0.021597 0.0005 
2570 1 0.00572268 0.0326394 0.0216908 0.0005 
897 1 0.000500201 0.0336798 0.0205002 0.0005 
1168 1 0.00404662 0.032984 0.0217397 0.00075 
1136 1 0.000751071 0.0315033 0.0219597 0.00075 
2381 1 0.00400151 0.028784 0.0214903 0.0005 
2530 1 0.00393784 0.0300798 0.0212558 0.0005 
2154 1 0.000751096 0.0296013 0.0218248 0.00075 
535 1 0.0013377 0.0348587 0.0205 0.0005 
2604 1 0.00627069 0.0342216 0.0221997 0.00125 
2371 1 0.00197417 0.030794 0.0218593 0.0005 
2660 1 0.00482022 0.0306522 0.0222136 0.0005 
2423 1 0.0064507 0.0290129 0.0222381 0.00075 
2337 1 0.00769301 0.03344 0.0205 0.0005 
2626 1 0.00535305 0.0316586 0.0219932 0.0005 
2456 1 0.00762714 0.0323139 0.0218703 0.0005 
2628 1 0.00159429 0.0337744 0.0219855 0.0005 
2152 1 0.000500194 0.0353952 0.020611 0.0005 
2874 1 0.00767931 0.035388 0.0219479 0.0005 
2864 1 0.00317953 0.0284849 0.0224062 0.00075 
835 1 0.00795592 0.0344187 0.0205018 0.0005 
2718 1 0.00406941 0.0296898 0.0224821 0.00075 
2330 1 0.000499903 0.0336816 0.022491 0.0005 
2493 1 0.00840869 0.0352147 0.0212529 0.0005 
2772 1 0.00845551 0.0299372 0.0224267 0.0005 
2393 1 0.0114605 0.0284454 0.021559 0.0005 
1987 1 0.0147292 0.0285694 0.0218429 0.0005 
1870 1 0.0140992 0.0286776 0.0207688 0.00075 
2301 1 0.0126519 0.0290734 0.022082 0.00075 
505 1 0.00862086 0.029697 0.0204998 0.0005 
886 1 0.00892348 0.0306499 0.0205051 0.0005 
1249 1 0.0130306 0.0330159 0.0207497 0.00075 
1154 1 0.0109042 0.0324755 0.0204999 0.0005 
609 1 0.0119019 0.0325406 0.0204999 0.0005 
1134 1 0.00822535 0.0323268 0.02075 0.00075 
1340 1 0.0113171 0.0333968 0.0205 0.0005 
1678 1 0.0121678 0.0339224 0.0205 0.0005 
1703 1 0.0103187 0.0316649 0.0205 0.0005 
1095 1 0.0131155 0.0342414 0.0205 0.0005 
1815 1 0.00921542 0.031606 0.0204999 0.0005 
1348 1 0.012913 0.030271 0.0205 0.0005 
2043 1 0.0106051 0.0292493 0.0204999 0.0005 
1867 1 0.0086681 0.033733 0.0212817 0.00075 
1793 1 0.0141652 0.0299485 0.0218484 0.00075 
2242 1 0.011779 0.0311203 0.0210003 0.001 
2245 1 0.00990206 0.0308103 0.0213122 0.00075 
2266 1 0.0128876 0.0288256 0.0204999 0.0005 
1954 1 0.0106668 0.0302472 0.0204998 0.0005 
1762 1 0.00883731 0.0314573 0.0214146 0.0005 
640 1 0.00970589 0.032728 0.0207501 0.00075 
2323 1 0.0125949 0.0350951 0.0205 0.0005 
2362 1 0.0139212 0.0300229 0.0205 0.0005 
2347 1 0.0116486 0.0347758 0.0205501 0.0005 
1361 1 0.0151067 0.0303441 0.0207499 0.00075 
2202 1 0.0137552 0.0314272 0.0209999 0.001 
2451 1 0.0118102 0.0293817 0.0208037 0.00075 
1083 1 0.014682 0.0340269 0.0212498 0.00125 
2305 1 0.0151293 0.0312766 0.0215823 0.0005 
2225 1 0.00974326 0.0297709 0.0205 0.0005 
2408 1 0.0132208 0.0349917 0.0212739 0.0005 
2304 1 0.0102789 0.0343623 0.0210003 0.001 
2574 1 0.0132557 0.0295425 0.0210931 0.0005 
698 1 0.015309 0.0321923 0.02075 0.00075 
2317 1 0.0111275 0.0298654 0.0224164 0.001 
2404 1 0.0124598 0.0340973 0.0217036 0.00075 
2390 1 0.00900211 0.0323934 0.0217274 0.0005 
2376 1 0.0129201 0.0349522 0.022496 0.0005 
2252 1 0.0121416 0.0324974 0.0214712 0.0005 
2577 1 0.0112087 0.0328992 0.0213672 0.0005 
2505 1 0.0128276 0.0302424 0.0216671 0.0005 
2439 1 0.0153828 0.032578 0.0219366 0.0005 
2247 1 0.0114882 0.0350537 0.0216104 0.0005 
1786 1 0.0153017 0.0288877 0.0205 0.0005 
2469 1 0.00904977 0.0350658 0.0205 0.0005 
2412 1 0.0128327 0.0311242 0.0221449 0.0005 
2345 1 0.0106305 0.0319725 0.0223988 0.001 
2297 1 0.0132888 0.0327379 0.0224578 0.001 
2379 1 0.0121188 0.0317908 0.0223593 0.0005 
2612 1 0.00846133 0.0347273 0.022125 0.0005 
2443 1 0.00947216 0.030144 0.0222785 0.0005 
2502 1 0.014467 0.0318238 0.0222596 0.0005 
2887 1 0.00985018 0.0331604 0.0219153 0.0005 
1854 1 0.0159447 0.0289324 0.021695 0.00075 
2690 1 0.0118037 0.0329092 0.0223175 0.0005 
2217 1 0.00939465 0.0351719 0.0219088 0.0005 
2357 1 0.0111667 0.0339755 0.0224578 0.00075 
2239 1 0.0119869 0.0353572 0.0224318 0.0005 
1409 1 0.0162856 0.0290663 0.0204999 0.0005 
1113 1 0.0173733 0.0296291 0.0207499 0.00075 
1044 1 0.0196279 0.0293624 0.0212499 0.00125 
557 1 0.0193314 0.0340039 0.0212499 0.00125 
304 1 0.0225035 0.0311042 0.0204999 0.0005 
1142 1 0.0223613 0.0345142 0.0205 0.0005 
1335 1 0.0170413 0.0329088 0.0205 0.0005 
1414 1 0.0235 0.0348689 0.0205 0.0005 
1016 1 0.0230921 0.0321782 0.02075 0.00075 
1531 1 0.0175271 0.033785 0.0205 0.0005 
1329 1 0.0235001 0.0288712 0.0204999 0.0005 
1318 1 0.0181243 0.0329829 0.0204999 0.0005 
1305 1 0.0180887 0.0309473 0.02075 0.00075 
1258 1 0.0233533 0.0298603 0.0204999 0.0005 
1695 1 0.01744 0.0351966 0.0209999 0.001 
1224 1 0.0166173 0.0314586 0.02075 0.00075 
878 1 0.0232501 0.0336697 0.0207499 0.00075 
1213 1 0.019065 0.032086 0.0207499 0.00075 
1447 1 0.0162912 0.0303905 0.0217513 0.00075 
1603 1 0.0163289 0.0302684 0.0204999 0.0005 
1403 1 0.0175336 0.0305254 0.0217883 0.0005 
1445 1 0.0235001 0.0310235 0.0204999 0.0005 
1362 1 0.0232302 0.0304665 0.0215858 0.00075 
1442 1 0.0179665 0.0292782 0.0217925 0.0005 
1626 1 0.0176631 0.0320957 0.0205 0.0005 
1534 1 0.0220974 0.0299489 0.0207499 0.00075 
1579 1 0.0212403 0.0336791 0.0207498 0.00075 
1468 1 0.0177544 0.0322164 0.0222595 0.00125 
1227 1 0.016671 0.0336917 0.0214535 0.00075 
1812 1 0.0235 0.0292565 0.0214227 0.0005 
2044 1 0.0160702 0.0331516 0.0204999 0.0005 
1699 1 0.0235 0.0328889 0.0216939 0.0005 
2478 1 0.0160278 0.0348986 0.0205 0.0005 
2311 1 0.0191395 0.0310341 0.0214212 0.0005 
809 1 0.0210438 0.0316704 0.021744 0.0015 
1420 1 0.0218134 0.0285583 0.0221589 0.00125 
2382 1 0.018498 0.030441 0.0220389 0.0005 
2235 1 0.0191399 0.0353323 0.0223729 0.0005 
1273 1 0.0217942 0.035348 0.0205 0.0005 
2228 1 0.0193254 0.0308781 0.0223914 0.0005 