ITEM: TIMESTEP
540000
ITEM: NUMBER OF ATOMS
1921
ITEM: BOX BOUNDS mm mm mm
-2.4e-06 0.0240024
-7.8e-06 0.0780078
-3e-06 0.030003
ITEM: ATOMS id type x y z radius 
1 1 0.00325912 0.00246042 0.0214999 0.0015 
2 1 0.000499984 0.00210684 0.0205 0.0005 
3 1 0.00527905 0.00488709 0.02075 0.00075 
4 1 0.00470266 0.000500001 0.0205 0.0005 
5 1 0.00450143 0.00366742 0.0205 0.0005 
6 1 0.00275863 0.000500183 0.0205 0.0005 
7 1 0.00391091 0.00447444 0.0205 0.0005 
8 1 0.000499996 0.000508697 0.0205 0.0005 
9 1 0.0010076 0.00342678 0.0209999 0.001 
10 1 0.00558575 0.0064619 0.0205063 0.0005 
11 1 0.00373386 0.000794666 0.0205 0.0005 
12 1 0.000500893 0.00594191 0.020501 0.0005 
13 1 0.00507933 0.00379007 0.0213151 0.0005 
14 1 0.00478238 0.00163577 0.0205 0.0005 
15 1 0.00156858 0.0060287 0.0205 0.0005 
16 1 0.00582432 0.00152781 0.0205 0.0005 
17 1 0.000499921 0.00474665 0.0204999 0.0005 
18 1 0.00536623 0.00271238 0.02075 0.00075 
19 1 0.00550373 0.000499994 0.0214005 0.0005 
20 1 0.00593838 0.000500396 0.0205 0.0005 
21 1 0.000790899 0.000499969 0.0214567 0.0005 
22 1 0.0068025 0.00227942 0.02075 0.00075 
23 1 0.00161009 0.00112598 0.0207499 0.00075 
24 1 0.00713109 0.000785055 0.02075 0.00075 
25 1 0.00295696 0.00417434 0.0205 0.0005 
27 1 0.00221612 0.00505658 0.0205 0.0005 
28 1 0.00221819 0.00429748 0.0211627 0.0005 
29 1 0.00195509 0.000749983 0.0221604 0.00075 
31 1 0.000499991 0.00143115 0.0212371 0.0005 
32 1 0.000500884 0.00621694 0.0214679 0.0005 
33 1 0.00131432 0.00514309 0.0213612 0.00075 
34 1 0.00628227 0.0037573 0.0205 0.0005 
35 1 0.00100947 0.00701192 0.0219545 0.0005 
36 1 0.00468726 0.00107175 0.0213202 0.0005 
37 1 0.00197136 0.00388717 0.0220531 0.0005 
38 1 0.0037884 0.000499992 0.021454 0.0005 
40 1 0.000499992 0.00050641 0.0224134 0.0005 
41 1 0.00723195 0.00343229 0.0205 0.0005 
42 1 0.00794661 0.00177721 0.0205 0.0005 
43 1 0.00627562 0.00417366 0.0214111 0.0005 
1724 1 0.00468935 0.00641535 0.0213954 0.00075 
1770 1 0.00257624 0.00599128 0.0205 0.0005 
1610 1 0.0052476 0.00508032 0.022 0.0005 
44 1 0.00788501 0.00686996 0.0205 0.0005 
1633 1 0.00752693 0.00358556 0.0220683 0.0005 
1665 1 0.000892264 0.00586528 0.0223209 0.0005 
1806 1 0.00774566 0.0050603 0.0223206 0.00075 
1715 1 0.00400912 0.000863844 0.0224424 0.0005 
45 1 0.00901862 0.00614524 0.0205 0.0005 
46 1 0.00932017 0.0051918 0.0205 0.0005 
47 1 0.0112293 0.00418184 0.0205 0.0005 
48 1 0.00955193 0.00318457 0.0205 0.0005 
49 1 0.0132418 0.00222905 0.02075 0.00075 
50 1 0.00987535 0.00146682 0.0205 0.0005 
51 1 0.0101311 0.000500155 0.0205 0.0005 
52 1 0.0128588 0.000521763 0.0205008 0.0005 
53 1 0.0111273 0.000608421 0.0205 0.0005 
54 1 0.00835675 0.000500013 0.0205 0.0005 
55 1 0.0105866 0.00502392 0.0205 0.0005 
56 1 0.0121657 0.00382784 0.0205 0.0005 
57 1 0.00835348 0.00293235 0.0207501 0.00075 
58 1 0.0105578 0.00615656 0.0205 0.0005 
59 1 0.00981443 0.00583395 0.0210859 0.0005 
60 1 0.0122302 0.00569509 0.0214999 0.0015 
61 1 0.0103015 0.000774302 0.0217077 0.00075 
62 1 0.00887629 0.00139975 0.0205 0.0005 
63 1 0.0086102 0.00413366 0.0205 0.0005 
64 1 0.0141086 0.0060538 0.0205 0.0005 
66 1 0.0144159 0.00402439 0.0212499 0.00125 
67 1 0.00924319 0.000520932 0.0209632 0.0005 
68 1 0.0110896 0.00256252 0.0212669 0.00125 
69 1 0.0140675 0.000749988 0.02075 0.00075 
70 1 0.00977508 0.00422733 0.0211521 0.00075 
71 1 0.011989 0.000500409 0.0210024 0.0005 
72 1 0.0122655 0.00137371 0.0205 0.0005 
1608 1 0.0157993 0.00667909 0.0213767 0.00075 
74 1 0.0169681 0.00400659 0.0205006 0.0005 
75 1 0.016026 0.00156499 0.0214999 0.0015 
76 1 0.0230202 0.000750054 0.02075 0.00075 
77 1 0.0234998 0.00527073 0.0205018 0.0005 
78 1 0.0212492 0.0010001 0.021 0.001 
79 1 0.02325 0.00320309 0.02075 0.00075 
81 1 0.020197 0.0026608 0.02075 0.00075 
82 1 0.019054 0.00351775 0.0205 0.0005 
83 1 0.0186188 0.00236948 0.02075 0.00075 
84 1 0.0214103 0.00246971 0.0205 0.0005 
85 1 0.0181703 0.00051429 0.0205 0.0005 
86 1 0.0232081 0.00164872 0.0215985 0.0005 
87 1 0.0204437 0.00414453 0.0205 0.0005 
88 1 0.0186304 0.00118196 0.02114 0.0005 
89 1 0.0222089 0.00238936 0.02146 0.00075 
90 1 0.0219547 0.00559119 0.02075 0.00075 
91 1 0.0212095 0.00656313 0.0205 0.0005 
92 1 0.0225549 0.00363063 0.0216996 0.0005 
93 1 0.0212726 0.00349094 0.020508 0.0005 
94 1 0.0186823 0.00522269 0.0205 0.0005 
95 1 0.0234859 0.00440263 0.0210164 0.0005 
96 1 0.0226764 0.00626755 0.0218417 0.0005 
97 1 0.0179392 0.00425741 0.0205 0.0005 
182 1 0.0232332 0.00651356 0.02075 0.00075 
1643 1 0.0202738 0.00440359 0.0214596 0.0005 
1663 1 0.0221408 0.00519842 0.0219392 0.0005 
1901 1 0.0207772 0.005668 0.0218382 0.0005 
26 1 0.000763892 0.00723816 0.02075 0.00075 
99 1 0.00554116 0.00749778 0.0224115 0.0005 
100 1 0.00589921 0.00785712 0.0209999 0.001 
101 1 0.00157699 0.00808938 0.0211704 0.0005 
102 1 0.00449256 0.00811919 0.0205 0.0005 
103 1 0.00160025 0.0102102 0.0205 0.0005 
104 1 0.00235102 0.00897627 0.02075 0.00075 
105 1 0.00665994 0.010092 0.0212412 0.0005 
106 1 0.00355142 0.00872385 0.0205 0.0005 
107 1 0.00369324 0.0101956 0.0205 0.0005 
108 1 0.00495063 0.0105764 0.02075 0.00075 
109 1 0.000501168 0.0102967 0.0205 0.0005 
110 1 0.00531843 0.00914657 0.0205 0.0005 
111 1 0.0011006 0.0111747 0.0205 0.0005 
112 1 0.00469574 0.0127141 0.02075 0.00075 
113 1 0.00533958 0.00947888 0.0217047 0.00075 
114 1 0.00514217 0.0110324 0.0218979 0.0005 
116 1 0.00173273 0.0127075 0.0205 0.0005 
117 1 0.0034053 0.0140479 0.0205 0.0005 
118 1 0.000500099 0.0134288 0.0205 0.0005 
119 1 0.0035177 0.0130491 0.0205 0.0005 
120 1 0.00511822 0.0141755 0.02075 0.00075 
122 1 0.00607606 0.0118595 0.0205001 0.0005 
124 1 0.00602762 0.00986662 0.0205 0.0005 
125 1 0.00532011 0.0117039 0.0211432 0.0005 
126 1 0.00396445 0.0135939 0.0212661 0.0005 
128 1 0.00685113 0.0125541 0.0205 0.0005 
129 1 0.00604866 0.0127185 0.0210828 0.0005 
130 1 0.000933636 0.0127558 0.02146 0.00075 
131 1 0.000539362 0.0120587 0.0205 0.0005 
132 1 0.00682363 0.00895787 0.0205 0.0005 
133 1 0.00435249 0.00928147 0.0207207 0.0005 
134 1 0.000753043 0.00908636 0.02075 0.00075 
136 1 0.00153942 0.00901239 0.0217197 0.0005 
137 1 0.00283532 0.0132834 0.0218395 0.0005 
138 1 0.000499992 0.00816074 0.021551 0.0005 
139 1 0.00730265 0.00768288 0.0205 0.0005 
140 1 0.000500101 0.0139341 0.0213629 0.0005 
141 1 0.00764064 0.00834008 0.0215081 0.00075 
148 1 0.0078709 0.0132023 0.0208201 0.00075 
1822 1 0.00315887 0.0100773 0.0221586 0.00075 
154 1 0.00789183 0.00960976 0.02075 0.00075 
1865 1 0.000851283 0.0114372 0.0224388 0.0005 
65 1 0.0144521 0.00757932 0.0205 0.0005 
142 1 0.0150857 0.00962586 0.0205 0.0005 
143 1 0.0147727 0.00853356 0.0205 0.0005 
144 1 0.0108462 0.0108407 0.0211908 0.0005 
145 1 0.0141387 0.00930753 0.0205494 0.0005 
147 1 0.0134832 0.00791357 0.0205 0.0005 
149 1 0.00963928 0.0076017 0.0212499 0.00125 
150 1 0.0121644 0.00794076 0.02075 0.00075 
151 1 0.0129034 0.00924606 0.02075 0.00075 
152 1 0.0109955 0.00878039 0.0205 0.0005 
153 1 0.0127027 0.0107333 0.02075 0.00075 
155 1 0.0124987 0.0122193 0.02075 0.00075 
156 1 0.01041 0.0115277 0.0205 0.0005 
158 1 0.00894723 0.0102904 0.0205 0.0005 
159 1 0.0151582 0.0106252 0.0205 0.0005 
160 1 0.0114073 0.0116447 0.0205 0.0005 
161 1 0.00908905 0.0132832 0.0205 0.0005 
162 1 0.011135 0.013782 0.0205004 0.0005 
163 1 0.00915737 0.0115837 0.02075 0.00075 
164 1 0.0104086 0.0130947 0.0205 0.0005 
165 1 0.00975124 0.0126289 0.0210923 0.0005 
166 1 0.0113007 0.012887 0.0213576 0.00075 
167 1 0.00936088 0.00937716 0.0205 0.0005 
168 1 0.0125962 0.0137169 0.02075 0.00075 
169 1 0.0137451 0.0118294 0.0205454 0.0005 
170 1 0.0152064 0.0120386 0.0209999 0.001 
171 1 0.00891149 0.00937374 0.0218244 0.00075 
172 1 0.014157 0.0107699 0.0215928 0.00075 
173 1 0.0138794 0.0128994 0.0205 0.0005 
174 1 0.0156226 0.013404 0.0214864 0.0005 
175 1 0.00906067 0.0105605 0.0214614 0.0005 
176 1 0.00879875 0.0125927 0.0213947 0.0005 
177 1 0.0103984 0.0118469 0.0214808 0.0005 
178 1 0.0157911 0.0133767 0.0205004 0.0005 
179 1 0.0138314 0.0102579 0.0205 0.0005 
180 1 0.0126488 0.0133846 0.0222117 0.00075 
184 1 0.0156099 0.00973812 0.0213441 0.0005 
183 1 0.0154776 0.00766918 0.0205 0.0005 
80 1 0.0203373 0.00765221 0.0207507 0.00075 
181 1 0.0163407 0.00992036 0.0205 0.0005 
185 1 0.0235 0.00872299 0.0205 0.0005 
186 1 0.018122 0.00725921 0.0214999 0.0015 
187 1 0.0221985 0.00747797 0.0205 0.0005 
188 1 0.0230642 0.00788937 0.0213231 0.00075 
189 1 0.0235 0.00972298 0.0205 0.0005 
190 1 0.0216189 0.00882162 0.0209999 0.001 
191 1 0.016267 0.00862531 0.02075 0.00075 
192 1 0.0161306 0.0109063 0.0205 0.0005 
193 1 0.0173022 0.0135952 0.0207519 0.00075 
194 1 0.0198506 0.00877617 0.0205001 0.0005 
196 1 0.0204574 0.0102494 0.0213259 0.0005 
197 1 0.01872 0.0096346 0.0209999 0.001 
198 1 0.0166421 0.0117873 0.0205 0.0005 
199 1 0.017382 0.00915006 0.0205 0.0005 
200 1 0.0229997 0.0110467 0.0209999 0.001 
201 1 0.0170262 0.00962719 0.0215991 0.00075 
202 1 0.0205005 0.00968726 0.0205 0.0005 
203 1 0.0173942 0.0108176 0.02075 0.00075 
204 1 0.0175735 0.0123838 0.0205 0.0005 
205 1 0.0196881 0.0137453 0.0205 0.0005 
206 1 0.0210321 0.0112586 0.02075 0.00075 
207 1 0.0234204 0.0125984 0.0205 0.0005 
208 1 0.0234976 0.00957794 0.0214894 0.0005 
209 1 0.0201675 0.00923696 0.0213295 0.0005 
210 1 0.0221956 0.0125816 0.02075 0.00075 
211 1 0.0199096 0.0107425 0.0205167 0.0005 
212 1 0.0218897 0.0140601 0.02075 0.00075 
213 1 0.0203392 0.0123784 0.0205 0.0005 
214 1 0.0234998 0.0135955 0.0205 0.0005 
215 1 0.0209279 0.0132975 0.0205 0.0005 
216 1 0.021606 0.0103707 0.021814 0.00075 
217 1 0.0166261 0.0125809 0.0213276 0.0005 
218 1 0.0209468 0.0125805 0.0215809 0.00075 
219 1 0.0229828 0.0133641 0.0213249 0.0005 
220 1 0.020361 0.0136682 0.0212356 0.0005 
221 1 0.0235 0.0123801 0.0214726 0.0005 
324 1 0.0185343 0.0138553 0.0205 0.0005 
1626 1 0.0191706 0.0116383 0.0219399 0.00125 
1740 1 0.0161936 0.0120401 0.0221292 0.0005 
1729 1 0.0190154 0.0135626 0.0218224 0.0005 
121 1 0.00199485 0.0141999 0.0209999 0.001 
123 1 0.000602065 0.0144454 0.0205 0.0005 
222 1 0.0066694 0.0143016 0.0205 0.0005 
223 1 0.00506393 0.0156306 0.0205 0.0005 
224 1 0.00261338 0.0154717 0.0205 0.0005 
225 1 0.00240021 0.0164635 0.0205 0.0005 
226 1 0.00664161 0.0158829 0.0212499 0.00125 
227 1 0.00166113 0.01579 0.0205002 0.0005 
228 1 0.00050038 0.0154582 0.0205 0.0005 
229 1 0.000500931 0.0166121 0.0205 0.0005 
230 1 0.0045619 0.0185041 0.0205 0.0005 
231 1 0.00271211 0.0174136 0.0205 0.0005 
232 1 0.00124994 0.0180413 0.0212499 0.00125 
233 1 0.00598507 0.0182824 0.0205 0.0005 
234 1 0.00542631 0.0193722 0.02075 0.00075 
235 1 0.000517647 0.0195779 0.0205 0.0005 
236 1 0.0046707 0.0172528 0.02075 0.00075 
237 1 0.00604473 0.0178464 0.0213979 0.0005 
238 1 0.00541414 0.0171557 0.0217518 0.0005 
239 1 0.00589696 0.0172811 0.0205 0.0005 
240 1 0.00265049 0.0187753 0.0205008 0.0005 
241 1 0.000514724 0.0161212 0.0213949 0.0005 
242 1 0.000501032 0.0201683 0.0213069 0.0005 
243 1 0.00361164 0.0190505 0.0205 0.0005 
244 1 0.00431449 0.0198859 0.0205 0.0005 
245 1 0.00637791 0.0173351 0.0221901 0.0005 
246 1 0.00337901 0.0202394 0.0205 0.0005 
247 1 0.00197261 0.0201605 0.0210155 0.001 
248 1 0.00538996 0.0201663 0.0217189 0.0005 
249 1 0.0069325 0.0206208 0.0205 0.0005 
250 1 0.00367763 0.01797 0.0205 0.0005 
256 1 0.00734274 0.0190928 0.0212499 0.00125 
255 1 0.00762773 0.017354 0.0221999 0.00075 
392 1 0.00573169 0.0208782 0.02075 0.00075 
443 1 0.00424934 0.0211077 0.0207557 0.00075 
1846 1 0.00343036 0.0194471 0.0220345 0.00075 
393 1 0.00298013 0.0211564 0.0205 0.0005 
1615 1 0.00605032 0.0184128 0.0223364 0.0005 
146 1 0.00810425 0.0145114 0.0205 0.0005 
252 1 0.0116999 0.0146072 0.0205001 0.0005 
254 1 0.0134622 0.0146255 0.0205 0.0005 
257 1 0.012533 0.0151186 0.0212803 0.00075 
258 1 0.0113029 0.0155251 0.0205 0.0005 
259 1 0.00800203 0.0172674 0.02075 0.00075 
260 1 0.0137959 0.0153297 0.0215093 0.0005 
261 1 0.00822025 0.0159719 0.0205 0.0005 
262 1 0.0138212 0.0155619 0.0205 0.0005 
263 1 0.0126409 0.0160892 0.0205 0.0005 
264 1 0.0103449 0.0187367 0.0205 0.0005 
265 1 0.00926327 0.0199996 0.0205 0.0005 
267 1 0.0140959 0.0171258 0.0212499 0.00125 
268 1 0.0113512 0.0185551 0.0205 0.0005 
269 1 0.0104282 0.0160142 0.0205 0.0005 
270 1 0.011997 0.0196836 0.0207499 0.00075 
271 1 0.0124047 0.0170609 0.0205 0.0005 
272 1 0.0146393 0.0194399 0.0205 0.0005 
273 1 0.0105634 0.017005 0.0205 0.0005 
274 1 0.0107729 0.0196406 0.0205 0.0005 
275 1 0.00998062 0.020699 0.0204999 0.0005 
276 1 0.0129957 0.0200111 0.0214448 0.0005 
277 1 0.0110754 0.020594 0.0205 0.0005 
278 1 0.0121458 0.0211895 0.0207499 0.00075 
279 1 0.0140074 0.0208947 0.0205 0.0005 
280 1 0.0115466 0.0175744 0.0205 0.0005 
281 1 0.0125468 0.0182878 0.0207499 0.00075 
282 1 0.0130347 0.0203469 0.0205 0.0005 
283 1 0.013952 0.0187008 0.0205 0.0005 
284 1 0.0131774 0.0193571 0.0205 0.0005 
285 1 0.0138802 0.0199699 0.0208779 0.0005 
286 1 0.0136434 0.0191222 0.0213529 0.0005 
287 1 0.0126855 0.0188833 0.0221196 0.00075 
288 1 0.012079 0.016426 0.0212603 0.0005 
289 1 0.0148822 0.0204102 0.0205 0.0005 
290 1 0.0145899 0.0188045 0.0212706 0.0005 
291 1 0.00938192 0.0190062 0.0205 0.0005 
292 1 0.0106959 0.0179014 0.020923 0.0005 
293 1 0.0143412 0.0209462 0.0214414 0.0005 
294 1 0.0133398 0.020949 0.0212425 0.0005 
295 1 0.00882375 0.0181758 0.0205 0.0005 
296 1 0.0151963 0.0186091 0.0205 0.0005 
297 1 0.00938377 0.0166757 0.02075 0.00075 
298 1 0.0111726 0.0189892 0.021383 0.0005 
300 1 0.011534 0.0180581 0.0214456 0.0005 
301 1 0.0114358 0.0165163 0.0205 0.0005 
302 1 0.00840403 0.016297 0.0214276 0.0005 
303 1 0.0118496 0.0204585 0.0217196 0.0005 
304 1 0.0112625 0.0170822 0.0213228 0.0005 
305 1 0.0140779 0.0186457 0.0221172 0.0005 
306 1 0.0151775 0.0157513 0.0205 0.0005 
307 1 0.010452 0.0164987 0.0213744 0.0005 
308 1 0.012316 0.0173539 0.0215481 0.0005 
309 1 0.0126912 0.0209183 0.022003 0.0005 
310 1 0.0127912 0.0161659 0.0219123 0.0005 
311 1 0.00977404 0.0178632 0.0205 0.0005 
312 1 0.0106382 0.0176464 0.0218882 0.0005 
314 1 0.0115339 0.0167127 0.0222115 0.0005 
315 1 0.010382 0.0201763 0.0218473 0.001 
316 1 0.0155764 0.0176841 0.0205 0.0005 
317 1 0.0157812 0.0199722 0.0205 0.0005 
318 1 0.0115053 0.0192601 0.0222863 0.0005 
319 1 0.0112391 0.0158841 0.0214311 0.0005 
320 1 0.0156117 0.0166668 0.0205 0.0005 
321 1 0.00889793 0.0197619 0.0216938 0.0005 
322 1 0.013901 0.020142 0.0218628 0.0005 
323 1 0.00925926 0.0170808 0.0219323 0.0005 
331 1 0.0158308 0.0169052 0.0214461 0.0005 
1603 1 0.00953488 0.0153025 0.0205071 0.0005 
325 1 0.0155686 0.0143697 0.0210986 0.0005 
326 1 0.0192434 0.0146484 0.0205 0.0005 
327 1 0.023499 0.0145955 0.0205 0.0005 
328 1 0.0188065 0.0151718 0.021233 0.0005 
329 1 0.0175102 0.0150811 0.0220575 0.0005 
330 1 0.0179157 0.0146474 0.0212442 0.0005 
332 1 0.0234982 0.0143396 0.0214675 0.0005 
333 1 0.0180299 0.0153054 0.0204999 0.0005 
334 1 0.0219718 0.0152037 0.021248 0.0005 
336 1 0.0226263 0.015094 0.0205 0.0005 
337 1 0.0166245 0.0156703 0.0209999 0.001 
338 1 0.0181914 0.0160668 0.0211277 0.0005 
339 1 0.0189514 0.0158985 0.0205 0.0005 
340 1 0.0179002 0.0172562 0.0213646 0.0005 
341 1 0.0178279 0.0167552 0.0205 0.0005 
342 1 0.0172461 0.018523 0.0205 0.0005 
343 1 0.022242 0.0163361 0.02075 0.00075 
344 1 0.0179397 0.0177568 0.0204999 0.0005 
345 1 0.019013 0.0171642 0.02075 0.00075 
346 1 0.0235 0.0177397 0.0205002 0.0005 
347 1 0.0222998 0.0180462 0.02075 0.00075 
348 1 0.0210573 0.0166535 0.0205 0.0005 
349 1 0.0200529 0.0179023 0.0205 0.0005 
350 1 0.0182274 0.0187159 0.0205 0.0005 
351 1 0.01917 0.0183797 0.0205 0.0005 
352 1 0.0234999 0.0187453 0.0205 0.0005 
353 1 0.0195104 0.0187994 0.0216336 0.00075 
354 1 0.016765 0.0173995 0.0207622 0.00075 
355 1 0.0208247 0.0188554 0.02075 0.00075 
356 1 0.0211333 0.0176694 0.0205 0.0005 
357 1 0.0196808 0.0192977 0.0205 0.0005 
358 1 0.0235 0.0155953 0.0204999 0.0005 
359 1 0.0200632 0.0165153 0.0205 0.0005 
360 1 0.0182839 0.0190394 0.0216048 0.0005 
361 1 0.0203768 0.0203054 0.0207499 0.00075 
362 1 0.0186096 0.0198913 0.02075 0.00075 
363 1 0.0234998 0.0165952 0.0204998 0.0005 
364 1 0.0224986 0.0201595 0.0214998 0.0015 
366 1 0.0204912 0.0172066 0.0211113 0.0005 
367 1 0.0232011 0.0171666 0.0215704 0.00075 
368 1 0.017307 0.0191626 0.02143 0.0005 
369 1 0.0235 0.0183721 0.0214277 0.0005 
370 1 0.019507 0.0200618 0.0216139 0.0005 
371 1 0.0177245 0.0182517 0.0213416 0.0005 
372 1 0.0208409 0.0210568 0.0221682 0.0005 
373 1 0.0193354 0.0210984 0.0219931 0.0005 
374 1 0.0174447 0.0195031 0.0204999 0.0005 
375 1 0.0170328 0.0210296 0.0212499 0.00125 
376 1 0.0161929 0.0185261 0.0205 0.0005 
377 1 0.023201 0.0156014 0.0217136 0.00075 
378 1 0.0200813 0.0204332 0.0223527 0.0005 
379 1 0.0165066 0.0193971 0.0208781 0.0005 
380 1 0.0207795 0.0185489 0.0219609 0.0005 
381 1 0.0205875 0.0196003 0.0217604 0.0005 
382 1 0.0234989 0.0186618 0.0223849 0.0005 
383 1 0.0197871 0.0168416 0.0217221 0.0005 
385 1 0.0168811 0.0169955 0.0219438 0.0005 
386 1 0.0192504 0.0160421 0.0214493 0.0005 
388 1 0.0201657 0.0177629 0.021876 0.0005 
390 1 0.00664053 0.0215421 0.0217416 0.00075 
391 1 0.00696141 0.0216205 0.0205 0.0005 
394 1 0.00509682 0.0219905 0.0205 0.0005 
395 1 0.000500388 0.0213544 0.0205 0.0005 
396 1 0.00199966 0.0218903 0.02075 0.00075 
397 1 0.0057724 0.0252786 0.0205 0.0005 
398 1 0.00623085 0.0241425 0.0207501 0.00075 
399 1 0.00463848 0.0233377 0.0209999 0.001 
400 1 0.00075013 0.0227205 0.02075 0.00075 
401 1 0.00133778 0.0258747 0.0213807 0.0005 
402 1 0.000501332 0.0249194 0.0204999 0.0005 
403 1 0.000501819 0.0259201 0.0205 0.0005 
404 1 0.00741988 0.0225097 0.0205 0.0005 
405 1 0.00279754 0.0256787 0.0205 0.0005 
406 1 0.0060594 0.0262364 0.0205 0.0005 
407 1 0.0035486 0.0246882 0.02075 0.00075 
408 1 0.000500076 0.0239194 0.0205 0.0005 
409 1 0.00699364 0.0254366 0.02075 0.00075 
410 1 0.00375835 0.0222284 0.0205 0.0005 
411 1 0.0005 0.0216804 0.0214453 0.0005 
412 1 0.00183381 0.0244446 0.0209999 0.001 
413 1 0.00619364 0.022575 0.02075 0.00075 
414 1 0.000499954 0.0242328 0.0216524 0.0005 
415 1 0.00686388 0.0266734 0.0209018 0.0005 
416 1 0.0030864 0.0269753 0.0207499 0.00075 
417 1 0.00779766 0.0265369 0.0205 0.0005 
418 1 0.00521003 0.0267637 0.0204999 0.0005 
419 1 0.000508468 0.0252557 0.0214416 0.0005 
420 1 0.00732257 0.027466 0.0205 0.0005 
421 1 0.00494407 0.0247184 0.0205 0.0005 
422 1 0.00052031 0.0249979 0.0224077 0.0005 
423 1 0.000537355 0.0261988 0.0218889 0.0005 
424 1 0.0018131 0.0258611 0.0205 0.0005 
426 1 0.00291359 0.0230739 0.0208674 0.00075 
427 1 0.00759219 0.0263364 0.0218607 0.00075 
428 1 0.00133223 0.0267426 0.0205 0.0005 
429 1 0.00440706 0.025562 0.0205 0.0005 
430 1 0.00361328 0.0258812 0.0211217 0.0005 
431 1 0.00631083 0.0269068 0.0217876 0.0005 
432 1 0.00505225 0.0217431 0.0214801 0.0005 
433 1 0.00197394 0.0275438 0.0205 0.0005 
434 1 0.0042253 0.0272935 0.0211685 0.0005 
435 1 0.00423392 0.026547 0.0205 0.0005 
436 1 0.00606114 0.0233692 0.0220252 0.00075 
437 1 0.00124855 0.0273795 0.0212728 0.0005 
438 1 0.000500241 0.0267514 0.0210557 0.0005 
439 1 0.00223198 0.0270679 0.0219793 0.00075 
440 1 0.00516658 0.0272839 0.0215354 0.0005 
442 1 0.00712288 0.0275321 0.0214779 0.0005 
444 1 0.00319154 0.0213557 0.0214568 0.0005 
445 1 0.00607405 0.0276333 0.02075 0.00075 
446 1 0.00721209 0.0233319 0.02145 0.0005 
447 1 0.000500422 0.0275615 0.021913 0.0005 
448 1 0.0077528 0.0244676 0.0205 0.0005 
450 1 0.00390356 0.0280193 0.0205 0.0005 
453 1 0.00746912 0.0235087 0.0205 0.0005 
454 1 0.00485012 0.0276965 0.0204998 0.0005 
455 1 0.00752233 0.0281085 0.0222054 0.0005 
456 1 0.00369749 0.0222173 0.021498 0.0005 
594 1 0.00288677 0.0281846 0.0205 0.0005 
579 1 0.00793173 0.028259 0.0205 0.0005 
629 1 0.00408328 0.0277786 0.022203 0.0005 
457 1 0.0154797 0.0214417 0.0219469 0.0005 
313 1 0.0113484 0.0213546 0.0216982 0.0005 
458 1 0.0101657 0.0217588 0.0219105 0.0005 
459 1 0.0134139 0.0217032 0.0205 0.0005 
460 1 0.0143275 0.0220187 0.0218318 0.0005 
461 1 0.00857554 0.0214239 0.0212499 0.00125 
462 1 0.00990336 0.022572 0.0213319 0.0005 
463 1 0.00822273 0.0253673 0.0205 0.0005 
464 1 0.00879143 0.0264113 0.0205 0.0005 
465 1 0.0106297 0.0217375 0.02075 0.00075 
466 1 0.00890031 0.0236372 0.0209999 0.001 
467 1 0.00943646 0.025383 0.0207989 0.00075 
468 1 0.0106183 0.0245165 0.0216733 0.00075 
469 1 0.0102375 0.0263048 0.0205 0.0005 
470 1 0.0101427 0.0243271 0.0204999 0.0005 
471 1 0.013676 0.024098 0.0205 0.0005 
473 1 0.0131834 0.0255046 0.0205 0.0005 
474 1 0.0148466 0.024096 0.0205 0.0005 
475 1 0.0127384 0.0233113 0.0205 0.0005 
476 1 0.0126202 0.0223185 0.0205 0.0005 
477 1 0.0114601 0.0253676 0.0213072 0.0005 
478 1 0.0119729 0.0239668 0.0205 0.0005 
479 1 0.01303 0.0220803 0.0216756 0.00075 
480 1 0.0114542 0.0260574 0.0205 0.0005 
481 1 0.012664 0.0250777 0.02169 0.00075 
482 1 0.014139 0.0250443 0.0211747 0.00075 
483 1 0.0121095 0.0252965 0.0205027 0.0005 
484 1 0.0127846 0.024554 0.0205 0.0005 
485 1 0.0129139 0.023892 0.021295 0.0005 
486 1 0.0151401 0.0254229 0.0205 0.0005 
487 1 0.0107956 0.0232283 0.02075 0.00075 
488 1 0.0152053 0.0231529 0.0205 0.0005 
489 1 0.0111382 0.024519 0.0205 0.0005 
490 1 0.0139433 0.0229228 0.0208316 0.00075 
491 1 0.0140526 0.026095 0.0205 0.0005 
492 1 0.0106886 0.0254123 0.0205 0.0005 
493 1 0.0110025 0.0269535 0.0205 0.0005 
494 1 0.0140662 0.0260301 0.0219904 0.0005 
495 1 0.0127827 0.0270279 0.0212624 0.00125 
496 1 0.0154654 0.0242593 0.0213979 0.0005 
497 1 0.0147519 0.0268142 0.0205 0.0005 
498 1 0.0147758 0.0261189 0.021221 0.0005 
499 1 0.0146221 0.0270546 0.0215387 0.0005 
500 1 0.0159012 0.026391 0.0207501 0.00075 
501 1 0.0150396 0.0219021 0.02075 0.00075 
502 1 0.0145368 0.0238867 0.021428 0.0005 
503 1 0.0150971 0.0254906 0.0219295 0.0005 
504 1 0.0123149 0.0230892 0.0214041 0.0005 
505 1 0.010573 0.02584 0.0214006 0.0005 
506 1 0.0155154 0.0274501 0.0212902 0.0005 
507 1 0.0111142 0.0266508 0.0216369 0.0005 
508 1 0.0137254 0.0236233 0.0219503 0.0005 
509 1 0.0117521 0.0239276 0.0215057 0.0005 
510 1 0.00987155 0.0254764 0.022016 0.0005 
511 1 0.0156406 0.0266383 0.0219473 0.0005 
512 1 0.00921898 0.0247056 0.0220159 0.0005 
513 1 0.00866713 0.0256621 0.0217717 0.0005 
514 1 0.0117256 0.0224115 0.020959 0.0005 
515 1 0.0157293 0.0246114 0.0205 0.0005 
516 1 0.0157236 0.0229249 0.0220324 0.001 
517 1 0.0112643 0.0279258 0.0205004 0.0005 
518 1 0.0106678 0.027559 0.0212316 0.0005 
519 1 0.0144486 0.0280086 0.02075 0.00075 
520 1 0.0148145 0.0279098 0.0220203 0.0005 
522 1 0.00833367 0.0232258 0.0223266 0.0005 
523 1 0.0145482 0.0247418 0.0223215 0.0005 
525 1 0.0160813 0.0226598 0.0205 0.0005 
526 1 0.0192111 0.0212659 0.02075 0.00075 
527 1 0.0213762 0.0214799 0.0205 0.0005 
528 1 0.0201586 0.0214751 0.0215625 0.0005 
529 1 0.0189247 0.0219887 0.0217778 0.0005 
530 1 0.0165655 0.0251838 0.0218295 0.001 
532 1 0.0203819 0.0216419 0.0205 0.0005 
533 1 0.0211309 0.0216862 0.0214472 0.0005 
534 1 0.0234999 0.0218945 0.0214994 0.0005 
535 1 0.0161144 0.0275968 0.0204999 0.0005 
536 1 0.0234983 0.0219291 0.0205 0.0005 
537 1 0.0165219 0.0265661 0.0224156 0.0005 
538 1 0.0222469 0.0225958 0.0209999 0.001 
539 1 0.0201981 0.0248176 0.0205 0.0005 
540 1 0.0166533 0.0238072 0.02075 0.00075 
541 1 0.0196138 0.0257589 0.0205 0.0005 
542 1 0.0183029 0.0224913 0.0207499 0.00075 
543 1 0.0215527 0.0238362 0.0205 0.0005 
544 1 0.0235 0.0260872 0.0205 0.0005 
545 1 0.0184221 0.0254609 0.02075 0.00075 
546 1 0.0232501 0.0240075 0.0207499 0.00075 
547 1 0.0235 0.0231425 0.021617 0.0005 
548 1 0.0234998 0.0272184 0.0205 0.0005 
549 1 0.0229684 0.0253494 0.0213577 0.00075 
550 1 0.0218504 0.0255545 0.0205 0.0005 
551 1 0.0181438 0.0239844 0.0207501 0.00075 
552 1 0.022185 0.0246122 0.0205 0.0005 
553 1 0.0170854 0.0226589 0.0205 0.0005 
554 1 0.016978 0.0258081 0.0204998 0.0005 
555 1 0.017451 0.0231107 0.0218179 0.00075 
556 1 0.0224147 0.0266281 0.0208028 0.00075 
557 1 0.0172844 0.0248566 0.0204999 0.0005 
558 1 0.0200984 0.023213 0.0212546 0.00125 
559 1 0.021198 0.0247757 0.0205 0.0005 
560 1 0.0182292 0.0246957 0.0220691 0.00075 
561 1 0.0176506 0.0272354 0.0212559 0.00125 
562 1 0.0191277 0.0266556 0.0205 0.0005 
563 1 0.0207486 0.0258148 0.0214839 0.001 
564 1 0.0193246 0.0262975 0.0214126 0.0005 
565 1 0.0214221 0.0226323 0.0222521 0.0005 
566 1 0.019237 0.0245359 0.0204996 0.0005 
567 1 0.0234669 0.0270786 0.0214896 0.0005 
568 1 0.0234998 0.0262479 0.0220454 0.0005 
569 1 0.0194659 0.025029 0.0213383 0.0005 
570 1 0.0185581 0.0258919 0.0219159 0.0005 
571 1 0.022692 0.0278087 0.0205 0.0005 
572 1 0.0216761 0.0269667 0.021753 0.0005 
573 1 0.021565 0.0274931 0.0204998 0.0005 
574 1 0.0200488 0.0279409 0.0212499 0.00125 
575 1 0.0185975 0.0234954 0.0221367 0.0005 
576 1 0.0194812 0.0257958 0.0222886 0.0005 
577 1 0.0234979 0.0280743 0.0213865 0.0005 
578 1 0.0190717 0.0268491 0.0222074 0.0005 
1630 1 0.0199059 0.0247888 0.0222033 0.0005 
451 1 0.000750056 0.0283996 0.02075 0.00075 
606 1 0.00263963 0.0285088 0.0218802 0.00075 
580 1 0.0005 0.0310128 0.0205 0.0005 
581 1 0.00362208 0.0311301 0.0204999 0.0005 
582 1 0.00163609 0.0331992 0.02075 0.00075 
583 1 0.00308952 0.0293937 0.02075 0.00075 
584 1 0.00523206 0.0325428 0.0207499 0.00075 
585 1 0.000500303 0.033271 0.0214079 0.0005 
586 1 0.00168318 0.0299188 0.02075 0.00075 
587 1 0.00305606 0.0327725 0.0205 0.0005 
588 1 0.00223158 0.03157 0.0209999 0.001 
589 1 0.00197448 0.0285954 0.0205 0.0005 
590 1 0.000500148 0.0295991 0.0205 0.0005 
591 1 0.00649131 0.033532 0.0205 0.0005 
592 1 0.00399919 0.0331361 0.0205 0.0005 
593 1 0.00482607 0.0336982 0.0204999 0.0005 
595 1 0.00484601 0.0310872 0.0207495 0.00075 
596 1 0.00519373 0.0294978 0.0205 0.0005 
597 1 0.00633809 0.0312831 0.02075 0.00075 
598 1 0.00405552 0.0301518 0.0204999 0.0005 
599 1 0.00645709 0.0325325 0.0205 0.0005 
600 1 0.00747209 0.0342722 0.0207502 0.00075 
601 1 0.00427393 0.029082 0.0205 0.0005 
602 1 0.00684606 0.0294094 0.0212499 0.00125 
603 1 0.00419918 0.0305276 0.0220885 0.00075 
604 1 0.0052851 0.0301697 0.0214758 0.0005 
605 1 0.00502857 0.0285826 0.0213628 0.00075 
607 1 0.00705313 0.031923 0.0215764 0.0005 
608 1 0.00598679 0.0308106 0.0218526 0.0005 
609 1 0.00075061 0.0321 0.021768 0.00075 
610 1 0.00329052 0.0305309 0.0212285 0.0005 
611 1 0.00552531 0.0316856 0.0216108 0.0005 
612 1 0.000527074 0.0320124 0.0205 0.0005 
613 1 0.00387277 0.0321311 0.0212324 0.00075 
614 1 0.000762373 0.0305967 0.0217217 0.00075 
615 1 0.00377621 0.0285262 0.0213542 0.0005 
616 1 0.00414404 0.0294637 0.0214226 0.0005 
617 1 0.000750046 0.0291311 0.0220594 0.00075 
618 1 0.00151904 0.0344663 0.0205 0.0005 
620 1 0.00199496 0.0304089 0.0219197 0.0005 
621 1 0.00504201 0.0295185 0.0221945 0.0005 
622 1 0.00731896 0.0320255 0.0205 0.0005 
623 1 0.00696348 0.031002 0.0219678 0.0005 
624 1 0.00204404 0.0327938 0.0218598 0.0005 
625 1 0.00758833 0.0344807 0.0219883 0.0005 
626 1 0.0074178 0.0330209 0.0205 0.0005 
627 1 0.00299776 0.0298717 0.0219286 0.0005 
628 1 0.000504678 0.03369 0.0205 0.0005 
631 1 0.00574725 0.034505 0.02075 0.00075 
632 1 0.00104737 0.0343683 0.0216536 0.00075 
633 1 0.00663205 0.0345674 0.0216313 0.0005 
634 1 0.000500065 0.0346901 0.0205 0.0005 
635 1 0.00549775 0.0345485 0.021974 0.0005 
636 1 0.00525755 0.0310628 0.0224888 0.0005 
766 1 0.00671768 0.035252 0.0204999 0.0005 
751 1 0.00451752 0.0348367 0.0205 0.0005 
789 1 0.007375 0.0353029 0.0214603 0.0005 
1659 1 0.00710321 0.0332375 0.0217801 0.00075 
1618 1 0.00259954 0.0338949 0.0213045 0.0005 
644 1 0.00796972 0.0309873 0.02075 0.00075 
1675 1 0.00255917 0.0318031 0.022445 0.0005 
702 1 0.00790766 0.031332 0.0219499 0.0005 
776 1 0.00495923 0.0352642 0.0213541 0.0005 
521 1 0.0106216 0.0288149 0.0216038 0.0005 
637 1 0.00878303 0.0341636 0.0208302 0.0005 
638 1 0.0129091 0.0289303 0.0220172 0.00075 
639 1 0.00871641 0.0288788 0.0205 0.0005 
640 1 0.00842617 0.0298361 0.0205 0.0005 
641 1 0.012944 0.0317985 0.02075 0.00075 
642 1 0.010637 0.0315106 0.0205 0.0005 
643 1 0.0116816 0.0319567 0.0205 0.0005 
645 1 0.0111921 0.0328287 0.0205 0.0005 
646 1 0.0122277 0.0327953 0.0205 0.0005 
647 1 0.0103351 0.0305576 0.0204999 0.0005 
648 1 0.0132659 0.0329865 0.0205 0.0005 
649 1 0.00938083 0.030148 0.0204997 0.0005 
650 1 0.012987 0.0298549 0.0205 0.0005 
651 1 0.0105508 0.0286264 0.0205 0.0005 
652 1 0.00822106 0.0323614 0.0212973 0.00075 
653 1 0.0147365 0.0291384 0.0218027 0.00075 
654 1 0.0117498 0.030544 0.0209999 0.001 
655 1 0.0101999 0.0300123 0.0216164 0.00075 
656 1 0.0132596 0.0285291 0.0205 0.0005 
657 1 0.0106812 0.0296178 0.0205 0.0005 
658 1 0.00888223 0.0304696 0.0214313 0.0005 
659 1 0.00942007 0.0313717 0.0207499 0.00075 
660 1 0.0127234 0.033828 0.0205 0.0005 
661 1 0.0145173 0.0292324 0.0205 0.0005 
662 1 0.0117363 0.0336677 0.0205 0.0005 
663 1 0.0156627 0.0296714 0.02075 0.00075 
664 1 0.0142061 0.0306123 0.0209999 0.001 
665 1 0.0120762 0.0288423 0.0207531 0.00075 
666 1 0.0148317 0.0327594 0.0212498 0.00125 
667 1 0.0156235 0.0304235 0.0217476 0.0005 
668 1 0.00973944 0.0292131 0.0205 0.0005 
669 1 0.0133675 0.0337177 0.0212569 0.0005 
670 1 0.00979691 0.033062 0.021 0.001 
671 1 0.0137088 0.0291992 0.0210936 0.0005 
672 1 0.0125668 0.0328776 0.0217211 0.00075 
673 1 0.00891816 0.0314969 0.0218879 0.0005 
674 1 0.011746 0.0319613 0.0214983 0.0005 
675 1 0.0107527 0.0319692 0.021381 0.0005 
676 1 0.012989 0.0301518 0.0217486 0.0005 
677 1 0.0121801 0.0340439 0.0213137 0.0005 
678 1 0.0155913 0.0284489 0.0204999 0.0005 
679 1 0.00837654 0.0333117 0.0205 0.0005 
680 1 0.0125104 0.0310375 0.0221949 0.0005 
681 1 0.0082831 0.033607 0.0214949 0.0005 
682 1 0.00911857 0.0295141 0.0212269 0.0005 
683 1 0.0150971 0.0312211 0.0220417 0.0005 
684 1 0.00987713 0.0317976 0.0218327 0.0005 
685 1 0.00949536 0.0342766 0.0218283 0.0005 
686 1 0.0111236 0.0328992 0.0221294 0.00075 
687 1 0.0119539 0.033824 0.0222627 0.0005 
688 1 0.0106746 0.0340357 0.0217289 0.0005 