ITEM: TIMESTEP
420000
ITEM: NUMBER OF ATOMS
3230
ITEM: BOX BOUNDS mm mm mm
-2.4e-06 0.0240024
-7.8e-06 0.0780078
-3e-06 0.030003
ITEM: ATOMS id type x y z radius 
291 1 0.00348407 0.00210989 0.0214998 0.0015 
368 1 0.000499782 0.0017435 0.0204999 0.0005 
784 1 0.0058326 0.00409967 0.02075 0.00075 
32 1 0.00554792 0.00055196 0.0205 0.0005 
241 1 0.00498249 0.0029895 0.0205 0.0005 
815 1 0.00261202 0.000500597 0.0205 0.0005 
448 1 0.00429923 0.00371995 0.0205 0.0005 
300 1 0.00050042 0.00050023 0.0205 0.0005 
442 1 0.000999571 0.00306634 0.0210001 0.001 
816 1 0.00634177 0.0052193 0.0205 0.0005 
710 1 0.00454063 0.000500512 0.0205 0.0005 
527 1 0.000499827 0.00538937 0.0204999 0.0005 
100 1 0.00526343 0.00303347 0.0215278 0.0005 
153 1 0.0052124 0.00181365 0.0205 0.0005 
722 1 0.00185076 0.00609798 0.0205 0.0005 
864 1 0.00615865 0.00135536 0.0205772 0.0005 
503 1 0.000500148 0.0043894 0.0205 0.0005 
561 1 0.00615713 0.0026352 0.02075 0.00075 
501 1 0.00637501 0.000499495 0.0214483 0.0005 
64 1 0.00676003 0.007065 0.0209998 0.001 
954 1 0.00673155 0.000503097 0.0205 0.0005 
587 1 0.000500212 0.00097343 0.0213819 0.0005 
370 1 0.0074482 0.00187161 0.0207499 0.00075 
28 1 0.00158229 0.00117109 0.0207496 0.00075 
220 1 0.00775818 0.000749961 0.0216964 0.00075 
2736 1 0.00196659 0.00409792 0.0204999 0.0005 
998 1 0.000754489 0.00654567 0.0209003 0.00075 
842 1 0.00666189 0.00645154 0.0223649 0.0005 
2924 1 0.0013731 0.00490257 0.0205 0.0005 
390 1 0.00236483 0.00376657 0.0213557 0.0005 
151 1 0.00143545 0.000750246 0.0221815 0.00075 
486 1 0.00396768 0.00591351 0.0222496 0.00225 
2921 1 0.000500787 0.0018899 0.0217864 0.0005 
1816 1 0.000500373 0.00592789 0.0219568 0.0005 
2929 1 0.00081988 0.00475638 0.0216589 0.00075 
463 1 0.00576805 0.00370435 0.0220778 0.0005 
1429 1 0.00127976 0.00650518 0.0222031 0.0005 
175 1 0.00453385 0.000528091 0.0223142 0.0005 
307 1 0.00845619 0.00256731 0.0205 0.0005 
870 1 0.00816767 0.00677111 0.0205 0.0005 
324 1 0.00825122 0.00455692 0.0219998 0.002 
1195 1 0.00861269 0.00192664 0.0212516 0.0005 
121 1 0.00909426 0.0063794 0.0205 0.0005 
228 1 0.00987313 0.00573272 0.0205 0.0005 
490 1 0.0102389 0.00479066 0.0205 0.0005 
199 1 0.0118039 0.00366116 0.0205 0.0005 
395 1 0.0108206 0.00301756 0.0205 0.0005 
474 1 0.0140445 0.00193609 0.0207498 0.00075 
282 1 0.01058 0.00173635 0.0204999 0.0005 
590 1 0.00960092 0.000499987 0.0205 0.0005 
176 1 0.0137375 0.000500444 0.0205 0.0005 
289 1 0.0116097 0.00050176 0.0205 0.0005 
362 1 0.00807466 0.000530252 0.0205 0.0005 
783 1 0.0111802 0.00445317 0.0204999 0.0005 
51 1 0.0134048 0.00304553 0.0205 0.0005 
233 1 0.00968119 0.00256816 0.02075 0.00075 
217 1 0.0110914 0.00544919 0.0204999 0.0005 
549 1 0.0105467 0.00527776 0.0213208 0.0005 
126 1 0.0127876 0.00509836 0.0214998 0.0015 
676 1 0.0105303 0.000769947 0.021291 0.00075 
209 1 0.0140435 0.0062911 0.0204999 0.0005 
730 1 0.00906755 0.00137803 0.0205 0.0005 
764 1 0.0108246 0.00700782 0.0212498 0.00125 
311 1 0.0146126 0.00688 0.0217565 0.001 
763 1 0.0100832 0.00375431 0.0205 0.0005 
66 1 0.0145207 0.00505492 0.0205 0.0005 
61 1 0.0149821 0.00594434 0.0205 0.0005 
108 1 0.0150888 0.00356679 0.0212498 0.00125 
89 1 0.00886961 0.00049998 0.0211819 0.0005 
155 1 0.012116 0.00211097 0.0212499 0.00125 
178 1 0.0149663 0.000749895 0.0207498 0.00075 
364 1 0.0108398 0.00377814 0.0214952 0.00075 
895 1 0.0116582 0.000499965 0.0217572 0.0005 
598 1 0.0127071 0.000500261 0.0205 0.0005 
942 1 0.010906 0.000499962 0.0224522 0.0005 
1065 1 0.00927646 0.00125157 0.0224146 0.001 
161 1 0.0232501 0.000749823 0.0207499 0.00075 
159 1 0.0229537 0.00343764 0.0204998 0.0005 
204 1 0.0235001 0.00568801 0.0204998 0.0005 
219 1 0.0215364 0.000999955 0.0209998 0.001 
333 1 0.0232501 0.00455717 0.0209695 0.00075 
142 1 0.0232501 0.00224964 0.0207505 0.00075 
200 1 0.0201675 0.00311533 0.02075 0.00075 
340 1 0.0216013 0.0046444 0.0207499 0.00075 
452 1 0.0235001 0.00685101 0.0204998 0.0005 
518 1 0.0197516 0.000749926 0.0207499 0.00075 
185 1 0.0165325 0.00561693 0.0212498 0.00125 
31 1 0.0169503 0.00149999 0.0214999 0.0015 
123 1 0.0229244 0.00107767 0.0224377 0.001 
273 1 0.0218028 0.0030187 0.0213654 0.001 
113 1 0.0170738 0.00338342 0.0205 0.0005 
544 1 0.0189472 0.0043445 0.0209999 0.001 
577 1 0.0232501 0.00626943 0.0215774 0.00075 
652 1 0.018263 0.00557905 0.0215076 0.0005 
290 1 0.0187513 0.00262107 0.02075 0.00075 
281 1 0.020522 0.0041307 0.021796 0.00075 
57 1 0.0203409 0.00635974 0.0214997 0.0015 
143 1 0.0222815 0.00630476 0.0204998 0.0005 
853 1 0.0182355 0.0056342 0.0205 0.0005 
106 1 0.022258 0.00560267 0.0212112 0.0005 
1012 1 0.0181529 0.00679184 0.0217954 0.00075 
109 1 0.0186049 0.00666327 0.0205 0.0005 
1778 1 0.00159565 0.0072135 0.0215708 0.0005 
380 1 0.00540596 0.00747293 0.0204999 0.0005 
256 1 0.00150255 0.00892282 0.0205 0.0005 
75 1 0.00233121 0.0079317 0.02075 0.00075 
887 1 0.0071853 0.00789308 0.0221765 0.0005 
1359 1 0.00348486 0.0083434 0.0205 0.0005 
588 1 0.00442813 0.00799501 0.0205 0.0005 
360 1 0.00680648 0.0127852 0.0205 0.0005 
154 1 0.00525309 0.00963776 0.02075 0.00075 
13 1 0.000499976 0.00913749 0.0205 0.0005 
879 1 0.00558016 0.00845757 0.0205 0.0005 
137 1 0.000954622 0.0100281 0.0205 0.0005 
44 1 0.00525485 0.0111377 0.0207498 0.00075 
1166 1 0.00591859 0.00844238 0.0217032 0.00075 
1234 1 0.00586964 0.00978633 0.0218272 0.0005 
323 1 0.00292184 0.0103912 0.0219994 0.002 
820 1 0.00101405 0.0110264 0.0205 0.0005 
1067 1 0.00775576 0.0131847 0.0205 0.0005 
713 1 0.00322122 0.012736 0.0205 0.0005 
881 1 0.000499977 0.0118841 0.0205 0.0005 
943 1 0.00416779 0.0120717 0.0205 0.0005 
673 1 0.00526062 0.0126376 0.0207498 0.00075 
174 1 0.00151137 0.0128726 0.0209998 0.001 
447 1 0.00629352 0.0104428 0.0205 0.0005 
737 1 0.00581006 0.0138895 0.0205 0.0005 
508 1 0.000499982 0.0138611 0.0205 0.0005 
872 1 0.00770065 0.0119469 0.02075 0.00075 
891 1 0.00658007 0.00846774 0.0205 0.0005 
1190 1 0.00540455 0.0106685 0.0219027 0.0005 
479 1 0.000499983 0.0139889 0.0214917 0.0005 
911 1 0.00491244 0.011892 0.0217129 0.0005 
35 1 0.0078385 0.00965802 0.0214997 0.0015 
2621 1 0.00638444 0.0117953 0.0205 0.0005 
1032 1 0.00626467 0.0108906 0.0214436 0.0005 
1085 1 0.000749669 0.0120426 0.0223387 0.00075 
742 1 0.000500122 0.0105253 0.021239 0.0005 
274 1 0.00788168 0.00792639 0.0205 0.0005 
427 1 0.00454365 0.00862803 0.0212684 0.0005 
1407 1 0.000750136 0.00803894 0.0210413 0.00075 
401 1 0.00650851 0.0124002 0.0222945 0.00125 
1617 1 0.00172357 0.00820529 0.0218076 0.0005 
2240 1 0.00200116 0.0127331 0.022411 0.0005 
1492 1 0.00050144 0.00729509 0.0220303 0.0005 
581 1 0.0126643 0.00726021 0.0221166 0.00075 
171 1 0.0132705 0.00738086 0.0207499 0.00075 
1070 1 0.00827142 0.00730975 0.0218472 0.00075 
636 1 0.0121271 0.00790589 0.0205 0.0005 
275 1 0.0146941 0.00831455 0.02075 0.00075 
46 1 0.00910612 0.00790046 0.0207499 0.00075 
556 1 0.0138209 0.00953413 0.02075 0.00075 
287 1 0.0107635 0.0112736 0.0205 0.0005 
865 1 0.0135977 0.0122489 0.0205 0.0005 
756 1 0.0116991 0.00960309 0.0214999 0.0015 
318 1 0.0136046 0.00842361 0.0217751 0.00075 
686 1 0.00946811 0.0090708 0.0205 0.0005 
10 1 0.0157192 0.00904265 0.0205 0.0005 
569 1 0.0124379 0.0111734 0.0205 0.0005 
252 1 0.00881236 0.0114315 0.0205 0.0005 
188 1 0.014928 0.0133642 0.0214999 0.0015 
772 1 0.0125991 0.0121911 0.0205 0.0005 
709 1 0.00973417 0.0106101 0.02075 0.00075 
1061 1 0.0116034 0.0118161 0.0204998 0.0005 
1118 1 0.00946692 0.0108046 0.0219554 0.0005 
59 1 0.0118272 0.0128272 0.0205 0.0005 
974 1 0.0117083 0.0141009 0.0205 0.0005 
734 1 0.012812 0.0135573 0.02075 0.00075 
968 1 0.0121701 0.0118172 0.0216138 0.00075 
62 1 0.00987975 0.0132904 0.0219997 0.002 
1238 1 0.0102895 0.00849667 0.0205 0.0005 
1028 1 0.0136536 0.0110248 0.02075 0.00075 
1653 1 0.0146116 0.0096727 0.0217096 0.0005 
80 1 0.0154192 0.0107187 0.021 0.001 
810 1 0.00969163 0.00847476 0.0220058 0.00075 
1080 1 0.0135778 0.0116712 0.0221106 0.00075 
192 1 0.0159232 0.0074548 0.0207497 0.00075 
1883 1 0.0150774 0.0107654 0.0224601 0.0005 
1056 1 0.0158961 0.0116948 0.0220342 0.0005 
938 1 0.00977007 0.00972225 0.0220141 0.0005 
1257 1 0.00803573 0.0115858 0.0220142 0.0005 
1225 1 0.0113709 0.0113341 0.0224465 0.0005 
714 1 0.016004 0.0120067 0.0205 0.0005 
1922 1 0.0165794 0.0084896 0.0205 0.0005 
6 1 0.022381 0.0077153 0.0209999 0.001 
190 1 0.0174753 0.00762649 0.0207497 0.00075 
1846 1 0.0166893 0.00948362 0.0205 0.0005 
342 1 0.0169636 0.0127677 0.02075 0.00075 
319 1 0.0209912 0.00797875 0.0205 0.0005 
293 1 0.0188668 0.0114916 0.0217497 0.00175 
735 1 0.020778 0.0103072 0.0215717 0.0005 
308 1 0.020111 0.00909142 0.0209998 0.001 
49 1 0.0172872 0.0102852 0.0205 0.0005 
146 1 0.0194464 0.00784308 0.0205 0.0005 
578 1 0.0230001 0.00961683 0.0209998 0.001 
90 1 0.0186918 0.00816252 0.0214444 0.00075 
71 1 0.0215842 0.00889054 0.0205 0.0005 
659 1 0.0180569 0.00933247 0.02075 0.00075 
967 1 0.017012 0.0112466 0.0204999 0.0005 
130 1 0.0206444 0.0125863 0.0205 0.0005 
41 1 0.021639 0.0106892 0.02075 0.00075 
231 1 0.0235001 0.0109397 0.0205 0.0005 
279 1 0.0235001 0.00840226 0.0217249 0.0005 
693 1 0.0211198 0.00819541 0.0216552 0.0005 
725 1 0.0226374 0.011809 0.0207499 0.00075 
697 1 0.0204344 0.0104682 0.0205 0.0005 
330 1 0.0223501 0.0132811 0.0207498 0.00075 
800 1 0.0207498 0.0115361 0.0205 0.0005 
538 1 0.0235001 0.0126845 0.0205 0.0005 
1236 1 0.0177433 0.0137185 0.0222565 0.0005 
812 1 0.0214191 0.012539 0.021131 0.0005 
944 1 0.0235001 0.0139883 0.0214579 0.0005 
794 1 0.0168997 0.0133867 0.0218341 0.0005 
592 1 0.0180545 0.0133241 0.0204999 0.0005 
910 1 0.0215477 0.00939755 0.021951 0.00075 
956 1 0.0190541 0.0133535 0.0205 0.0005 
1899 1 0.0165443 0.0116746 0.0212731 0.0005 
1138 1 0.0225216 0.0109764 0.021992 0.00075 
272 1 0.0235001 0.0137021 0.0204999 0.0005 
770 1 0.0235 0.0117979 0.0216544 0.0005 
1517 1 0.021133 0.0116247 0.0214194 0.0005 
1498 1 0.0183966 0.0138163 0.0213002 0.0005 
1575 1 0.0218763 0.00824591 0.022309 0.0005 
2494 1 0.0187428 0.0136864 0.0222291 0.0005 
296 1 0.00381398 0.0147956 0.0222497 0.00225 
646 1 0.00140698 0.0144836 0.0205 0.0005 
521 1 0.00109546 0.014779 0.0216373 0.0005 
439 1 0.00716951 0.0149201 0.0212499 0.00125 
196 1 0.000502082 0.0148043 0.0208322 0.0005 
782 1 0.00049996 0.0155675 0.0214839 0.0005 
70 1 0.000501632 0.0157475 0.0205001 0.0005 
888 1 0.00361031 0.0169252 0.0205 0.0005 
550 1 0.00283166 0.0175656 0.0205 0.0005 
1 1 0.00801655 0.0169832 0.02075 0.00075 
529 1 0.00131748 0.0171027 0.0212499 0.00125 
269 1 0.00725405 0.0187611 0.0212602 0.00125 
19 1 0.00476196 0.0180138 0.0212499 0.00125 
1077 1 0.00626939 0.0175303 0.0205 0.0005 
1004 1 0.00613732 0.0203404 0.02075 0.00075 
688 1 0.000603509 0.0204163 0.0205 0.0005 
1660 1 0.00516188 0.0195437 0.0205 0.0005 
972 1 0.00588322 0.0163679 0.02075 0.00075 
223 1 0.004 0.0208977 0.0219433 0.00175 
315 1 0.00280289 0.0185828 0.0213601 0.00075 
576 1 0.000750121 0.0189543 0.02075 0.00075 
1094 1 0.00651644 0.0203559 0.0222188 0.00075 
1884 1 0.00105653 0.0203196 0.0222384 0.0005 
430 1 0.00197661 0.0189608 0.0205 0.0005 
1829 1 0.00631808 0.0173474 0.0216938 0.0005 
1696 1 0.00617336 0.0161767 0.0219507 0.0005 
1613 1 0.00302629 0.0173555 0.0215447 0.0005 
1859 1 0.0073948 0.0204334 0.0205 0.0005 
436 1 0.00695252 0.0166678 0.0213254 0.0005 
695 1 0.00785012 0.0165373 0.0222109 0.00075 
3191 1 0.00227773 0.0202002 0.0206408 0.0005 
624 1 0.012461 0.0151318 0.0216318 0.0005 
611 1 0.00914657 0.0151523 0.0205 0.0005 
110 1 0.0136678 0.0149416 0.0205 0.0005 
2226 1 0.01239 0.0149361 0.0205 0.0005 
877 1 0.0103061 0.0193253 0.0205 0.0005 
1570 1 0.00838802 0.0198556 0.0204999 0.0005 
54 1 0.00905827 0.0178088 0.0222086 0.001 
118 1 0.014753 0.0160972 0.0212499 0.00125 
717 1 0.0113932 0.0185011 0.0205 0.0005 
1232 1 0.0113978 0.0150638 0.0205 0.0005 
934 1 0.0125376 0.0192661 0.0207499 0.00075 
1310 1 0.0127101 0.0170506 0.0205005 0.0005 
1212 1 0.0147128 0.0185666 0.0205 0.0005 
1035 1 0.0112531 0.0175036 0.0205 0.0005 
1592 1 0.0113353 0.0194995 0.0205 0.0005 
1697 1 0.00987693 0.0203209 0.0205 0.0005 
2033 1 0.0126669 0.0201861 0.0215862 0.0005 
1264 1 0.0108746 0.0203877 0.0204999 0.0005 
1164 1 0.0120106 0.0208448 0.0207506 0.00075 
982 1 0.0142852 0.02043 0.0205 0.0005 
1448 1 0.0122025 0.0179136 0.0205 0.0005 
2386 1 0.0133149 0.0180213 0.0210599 0.00075 
2420 1 0.0131619 0.0204276 0.0204999 0.0005 
2431 1 0.0143611 0.0176289 0.0204998 0.0005 
2287 1 0.013925 0.019193 0.0205 0.0005 
2500 1 0.0145233 0.0196927 0.0211338 0.0005 
2378 1 0.0135407 0.0198538 0.0212259 0.0005 
2447 1 0.0134842 0.0190399 0.0221729 0.00075 
2086 1 0.0129719 0.0165309 0.0213164 0.0005 
1311 1 0.0152453 0.0194155 0.0205 0.0005 
2645 1 0.0148633 0.0179097 0.0213175 0.0005 
1376 1 0.00931776 0.019495 0.0205865 0.0005 
2392 1 0.0113725 0.0179977 0.0213638 0.0005 
1757 1 0.014867 0.0205337 0.0215515 0.0005 
2594 1 0.0133691 0.0208658 0.0213744 0.0005 
2618 1 0.0149512 0.0175281 0.0222375 0.0005 
2897 1 0.00958323 0.0184486 0.0205 0.0005 
1338 1 0.0154054 0.0177157 0.0204999 0.0005 
2978 1 0.00967329 0.0169477 0.02075 0.00075 
2989 1 0.0107596 0.0188193 0.0212393 0.0005 
2598 1 0.0152973 0.0190195 0.0222283 0.001 
2289 1 0.0122172 0.0184816 0.0216689 0.0005 
3051 1 0.0117497 0.0165883 0.0206688 0.0005 
3061 1 0.00868642 0.0159505 0.0209705 0.0005 
3029 1 0.0106829 0.0198165 0.021298 0.0005 
3080 1 0.010984 0.0165835 0.0213949 0.0005 
2473 1 0.0140467 0.0179285 0.022069 0.0005 
43 1 0.0157682 0.0148793 0.0205 0.0005 
3118 1 0.0102471 0.0157067 0.0211569 0.0005 
748 1 0.00872313 0.0155281 0.0218852 0.0005 
2294 1 0.0126752 0.0173602 0.0219062 0.0005 
3001 1 0.0116306 0.0209771 0.0219343 0.0005 
3168 1 0.0126357 0.016069 0.0221382 0.0005 
3174 1 0.0101736 0.0180092 0.0212252 0.0005 
3188 1 0.0104931 0.0172381 0.0222094 0.0005 
3010 1 0.0106326 0.0208864 0.0222374 0.0005 
3215 1 0.0117083 0.0168483 0.0222564 0.0005 
3149 1 0.0097034 0.01625 0.0224182 0.0005 
1247 1 0.0096792 0.0197396 0.0224633 0.001 
523 1 0.0185844 0.0143855 0.0204999 0.0005 
639 1 0.0225079 0.0143065 0.0214555 0.0005 
350 1 0.0204966 0.0143125 0.0214998 0.0015 
78 1 0.0227757 0.0144295 0.0205 0.0005 
2511 1 0.0160885 0.0169722 0.0205 0.0005 
2117 1 0.0164729 0.0158528 0.0214769 0.0005 
189 1 0.0162968 0.0157329 0.0204999 0.0005 
2460 1 0.0161104 0.018914 0.0205 0.0005 
139 1 0.0171575 0.0146063 0.0209999 0.001 
1193 1 0.0186031 0.0149413 0.0213309 0.0005 
345 1 0.0190526 0.015269 0.0204999 0.0005 
741 1 0.0180385 0.0157514 0.0214944 0.0005 
450 1 0.0180964 0.0156639 0.0205 0.0005 
947 1 0.0174002 0.0178763 0.0205 0.0005 
591 1 0.0222348 0.0155283 0.0207499 0.00075 
465 1 0.0182019 0.0172768 0.0205 0.0005 
719 1 0.0189672 0.0164169 0.020987 0.00075 
628 1 0.0235 0.0167422 0.0205 0.0005 
42 1 0.0223168 0.0170584 0.0207499 0.00075 
747 1 0.0210814 0.015943 0.0205 0.0005 
813 1 0.0200537 0.0170361 0.0205 0.0005 
787 1 0.0184466 0.0182464 0.0204999 0.0005 
492 1 0.0191932 0.0175456 0.0204999 0.0005 
238 1 0.0235 0.017758 0.0204999 0.0005 
1216 1 0.0196169 0.0175776 0.0216812 0.00075 
1230 1 0.0172309 0.0165304 0.0207499 0.00075 
566 1 0.0206738 0.0180922 0.0207498 0.00075 
1333 1 0.0210974 0.0169429 0.0205 0.0005 
1091 1 0.0194078 0.0185222 0.0205 0.0005 
1398 1 0.0210971 0.0201895 0.0205 0.0005 
1189 1 0.0235 0.0148859 0.0210167 0.0005 
1427 1 0.0200327 0.0159812 0.0204999 0.0005 
898 1 0.0185098 0.0181256 0.0214904 0.0005 
1452 1 0.0200375 0.0195726 0.0207499 0.00075 
1488 1 0.0181974 0.0194454 0.02075 0.00075 
1124 1 0.0235 0.0157419 0.0204999 0.0005 
1020 1 0.0224997 0.0191718 0.0215 0.0015 
1401 1 0.0214189 0.0165403 0.0221598 0.001 
1298 1 0.0201627 0.0165059 0.021341 0.0005 
1170 1 0.0232346 0.016232 0.0216187 0.00075 
1831 1 0.0176 0.0184792 0.0212729 0.0005 
957 1 0.0233337 0.0210789 0.0204999 0.0005 
1320 1 0.0186861 0.0208635 0.02075 0.00075 
1598 1 0.0197496 0.0206214 0.0213656 0.0005 
1437 1 0.0235001 0.0209033 0.0214701 0.0005 
1184 1 0.0235002 0.0174412 0.0214483 0.0005 
1692 1 0.0191484 0.0189273 0.0213767 0.0005 
1828 1 0.0177783 0.0174507 0.0213949 0.0005 
1202 1 0.0206607 0.019906 0.0217807 0.0005 
1460 1 0.0207697 0.0208211 0.0213926 0.0005 
1984 1 0.0190602 0.0199144 0.0215232 0.0005 
1738 1 0.0171099 0.0188821 0.0205 0.0005 
1648 1 0.0166116 0.0205614 0.0212498 0.00125 
2467 1 0.0164013 0.017922 0.0205 0.0005 
1963 1 0.0187763 0.0207839 0.0219941 0.0005 
1434 1 0.02325 0.0148895 0.022287 0.00075 
1796 1 0.0197771 0.0194589 0.022051 0.0005 
1105 1 0.0203191 0.020827 0.0205 0.0005 
1865 1 0.0166036 0.0186904 0.0213407 0.0005 
1767 1 0.0209749 0.0179585 0.0219556 0.0005 
1929 1 0.0205264 0.0189057 0.0216869 0.0005 
2072 1 0.0235001 0.017701 0.0224139 0.0005 
2099 1 0.0198956 0.0162745 0.0222764 0.0005 
838 1 0.0164326 0.0173817 0.0220539 0.001 
2396 1 0.0173438 0.0157256 0.0222132 0.0005 
2547 1 0.0192401 0.0155408 0.022455 0.0005 
896 1 0.00713596 0.0214077 0.0205 0.0005 
678 1 0.00126476 0.0216594 0.0212896 0.001 
700 1 0.00598743 0.0218329 0.0207498 0.00075 
1293 1 0.00245007 0.0221476 0.0205 0.0005 
1416 1 0.00348694 0.0226309 0.0205 0.0005 
1578 1 0.00524774 0.0226907 0.0212798 0.0005 
482 1 0.00054383 0.0228229 0.0205 0.0005 
12 1 0.00242328 0.0233763 0.0207503 0.00075 
952 1 0.0058034 0.0253734 0.0205 0.0005 
1439 1 0.00676209 0.0246081 0.0207499 0.00075 
831 1 0.00508486 0.0241554 0.0209998 0.001 
534 1 0.000948485 0.0240093 0.0207501 0.00075 
1423 1 0.00112313 0.0267341 0.0211964 0.0005 
1406 1 0.00069359 0.0261587 0.0205 0.0005 
483 1 0.0005 0.0271398 0.0205 0.0005 
1483 1 0.00746009 0.0223575 0.0205 0.0005 
1512 1 0.00324357 0.0260947 0.0205 0.0005 
752 1 0.00594594 0.0270197 0.0205 0.0005 
1805 1 0.0033991 0.024552 0.0207497 0.00075 
1576 1 0.000499962 0.0251714 0.0205 0.0005 
1373 1 0.00689135 0.0261022 0.0207498 0.00075 
1860 1 0.00447276 0.0228116 0.0205 0.0005 
1625 1 0.000500932 0.0230572 0.0214712 0.0005 
1455 1 0.00192127 0.0254544 0.0209999 0.001 
1942 1 0.0066201 0.023152 0.0210797 0.00075 
1926 1 0.000500877 0.024645 0.0217308 0.0005 
1520 1 0.00664489 0.027595 0.0209248 0.0005 
1143 1 0.00314912 0.0276728 0.0208962 0.00075 
2021 1 0.00773847 0.026986 0.0204997 0.0005 
980 1 0.00533007 0.0278076 0.0205 0.0005 
1825 1 0.000499446 0.0257328 0.0213861 0.0005 
2481 1 0.00747718 0.0279512 0.0205 0.0005 
2583 1 0.00413464 0.0256333 0.0205 0.0005 
1893 1 0.000997944 0.0253901 0.022182 0.0005 
2706 1 0.00050427 0.0264102 0.0221216 0.0005 
348 1 0.00234034 0.0268059 0.0205 0.0005 
775 1 0.0052778 0.0262482 0.0219218 0.00125 
1662 1 0.00365609 0.0233505 0.0216091 0.00075 
2168 1 0.00692096 0.0273733 0.0221237 0.00075 
2244 1 0.00149838 0.0273458 0.0205 0.0005 
2852 1 0.00426601 0.0266506 0.0205 0.0005 
2884 1 0.00366586 0.0265459 0.0212934 0.0005 
2920 1 0.00585178 0.0278714 0.0216069 0.0005 
1474 1 0.00511956 0.0228235 0.022263 0.0005 
1449 1 0.00206149 0.0281722 0.0205 0.0005 
2833 1 0.0043731 0.0277174 0.0215474 0.0005 
2427 1 0.00433968 0.0276681 0.0205 0.0005 
1991 1 0.00629076 0.0245267 0.0222118 0.00075 
2565 1 0.00772973 0.023726 0.0211614 0.0005 
2813 1 0.00137406 0.027808 0.0217006 0.0005 
1209 1 0.000499904 0.0273227 0.0217118 0.0005 
2922 1 0.00230686 0.0273612 0.022402 0.00075 
1702 1 0.000504581 0.0283067 0.0219664 0.0005 
1726 1 0.000499303 0.0223571 0.0223738 0.0005 
2991 1 0.00387312 0.0272357 0.0224804 0.0005 
600 1 0.00871967 0.0214013 0.02125 0.00125 
1144 1 0.0101668 0.022306 0.0216421 0.0005 
1577 1 0.0133319 0.0214553 0.0205 0.0005 
1650 1 0.00814601 0.0230923 0.0205 0.0005 
946 1 0.00817661 0.0251718 0.0220493 0.00125 
904 1 0.00820898 0.0243028 0.0204999 0.0005 
1081 1 0.00844406 0.0261179 0.0205 0.0005 
1343 1 0.0106811 0.0215975 0.0207499 0.00075 
1394 1 0.00951092 0.0234924 0.0209998 0.001 
1698 1 0.0096611 0.0255001 0.02075 0.00075 
1342 1 0.0110788 0.0246374 0.021591 0.00075 
978 1 0.0106725 0.0265766 0.0205 0.0005 
1208 1 0.0104465 0.0245528 0.0205 0.0005 
1350 1 0.0134843 0.0238832 0.0205 0.0005 
919 1 0.00936278 0.027912 0.0217505 0.00175 
780 1 0.0129246 0.0258066 0.0205 0.0005 
353 1 0.0146344 0.0235308 0.0205 0.0005 
1294 1 0.0126495 0.022663 0.0205 0.0005 
1180 1 0.0118521 0.0220591 0.0205 0.0005 
1462 1 0.0119248 0.0257781 0.02133 0.0005 
1467 1 0.0123094 0.0236042 0.0204998 0.0005 
1552 1 0.0127394 0.0219367 0.0215134 0.00075 
1602 1 0.0116357 0.0262557 0.0205001 0.0005 
1621 1 0.0130199 0.0252595 0.0216374 0.00075 
861 1 0.0143279 0.0247714 0.0207498 0.00075 
1643 1 0.0121024 0.0252374 0.0205 0.0005 
1539 1 0.0129707 0.0247412 0.0205 0.0005 
1330 1 0.01402 0.0237019 0.0213249 0.0005 
1192 1 0.014844 0.0259444 0.0205 0.0005 
1614 1 0.0111964 0.0230935 0.02075 0.00075 
1693 1 0.0152551 0.0227079 0.0205 0.0005 
1618 1 0.0115738 0.0242814 0.0204999 0.0005 
1221 1 0.0138726 0.0225718 0.0207499 0.00075 
1915 1 0.0138636 0.0261505 0.0204999 0.0005 
1869 1 0.0111048 0.0253055 0.0205 0.0005 
2193 1 0.0112591 0.0273865 0.0205 0.0005 
2263 1 0.0141164 0.0258135 0.0214068 0.0005 
2270 1 0.0128395 0.0274353 0.0212498 0.00125 
1753 1 0.0153587 0.0238762 0.0210966 0.0005 
862 1 0.0145789 0.0275105 0.0204999 0.0005 
1775 1 0.0139799 0.0216331 0.0215692 0.0005 
2004 1 0.0144296 0.0267209 0.021095 0.0005 
1958 1 0.0145465 0.0277313 0.0214964 0.0005 
2243 1 0.0156315 0.0268844 0.0207499 0.00075 
1017 1 0.0149133 0.0214917 0.0207499 0.00075 
2348 1 0.0147682 0.0230536 0.0214767 0.0005 
1955 1 0.0150423 0.0261274 0.0216167 0.0005 
1563 1 0.0159993 0.0233927 0.0205 0.0005 
2603 1 0.0129912 0.0233445 0.0211832 0.0005 
2121 1 0.010748 0.0258932 0.0212261 0.0005 
2261 1 0.0155239 0.0279423 0.0214067 0.0005 
2026 1 0.0112476 0.0266566 0.0216453 0.0005 
2662 1 0.0135682 0.0229524 0.021901 0.0005 
2201 1 0.0123103 0.0243361 0.0211818 0.0005 
2010 1 0.0132306 0.0240466 0.0218534 0.0005 
1931 1 0.0108103 0.0256932 0.022204 0.0005 
2419 1 0.0151625 0.0270709 0.0219253 0.0005 
1768 1 0.0159255 0.0280815 0.0205 0.0005 
2097 1 0.00987204 0.0246982 0.0219153 0.0005 
2143 1 0.00832186 0.0234333 0.0219121 0.0005 
2681 1 0.0152364 0.0213841 0.0219527 0.0005 
2411 1 0.00983566 0.0257245 0.0219824 0.0005 
1682 1 0.0111613 0.0219559 0.02185 0.0005 
1655 1 0.0119886 0.0233113 0.0222983 0.001 
1989 1 0.0141637 0.0265203 0.0224366 0.00075 
2463 1 0.0114938 0.0275328 0.022364 0.0005 
2646 1 0.0145259 0.02232 0.0224593 0.00075 
144 1 0.0160503 0.0252037 0.0209999 0.001 
1837 1 0.0161157 0.0269411 0.0221978 0.0005 
1794 1 0.0161791 0.0226909 0.0218407 0.001 
1219 1 0.0220079 0.0215711 0.0209998 0.001 
152 1 0.0208579 0.0236288 0.0204998 0.0005 
1292 1 0.0171357 0.023854 0.02075 0.00075 
512 1 0.0191336 0.0268912 0.0205 0.0005 
1288 1 0.0160358 0.0220341 0.0204999 0.0005 
1048 1 0.0179864 0.0221916 0.02075 0.00075 
1415 1 0.0215526 0.0229098 0.0204999 0.0005 
1087 1 0.0234956 0.0256136 0.0205 0.0005 
1176 1 0.0184116 0.0259019 0.02075 0.00075 
1269 1 0.02325 0.0227785 0.02075 0.00075 
1507 1 0.0235 0.0248165 0.0218813 0.0005 
1574 1 0.0235001 0.0267163 0.0204998 0.0005 
1472 1 0.0232501 0.0243472 0.02075 0.00075 
1590 1 0.0222226 0.0250133 0.0204996 0.0005 
1634 1 0.0186463 0.0238219 0.0207499 0.00075 
908 1 0.0223096 0.023563 0.0204999 0.0005 
1646 1 0.0168555 0.0226617 0.0205 0.0005 
1927 1 0.0171942 0.0260352 0.0205 0.0005 
1897 1 0.017877 0.0231851 0.0218693 0.00075 
1370 1 0.0229694 0.02782 0.0207499 0.00075 
1243 1 0.0201499 0.025042 0.0212502 0.00125 
1978 1 0.0175549 0.0250124 0.0205 0.0005 
1881 1 0.0166953 0.0241667 0.0218774 0.0005 
1514 1 0.0199155 0.0223596 0.0212499 0.00125 
1925 1 0.0216132 0.0242492 0.0207095 0.0005 
1527 1 0.0179719 0.0247989 0.0216665 0.00075 
1106 1 0.0174315 0.0275984 0.0212499 0.00125 
1323 1 0.0189962 0.0278819 0.0205 0.0005 
1090 1 0.022424 0.0261925 0.0217763 0.00125 
1015 1 0.021751 0.0279488 0.0205 0.0005 
1974 1 0.0235001 0.0282633 0.021791 0.0005 
1267 1 0.0205189 0.0272473 0.0209999 0.001 
2065 1 0.0190197 0.0238953 0.021943 0.0005 
1910 1 0.0191607 0.027659 0.0215125 0.0005 
2198 1 0.0235005 0.0274418 0.0223608 0.0005 
2162 1 0.021138 0.0215663 0.0222217 0.0005 
2008 1 0.0186733 0.0282953 0.0222671 0.0005 
2303 1 0.0179556 0.0217186 0.0221741 0.00075 
1285 1 0.000808974 0.0283898 0.0207498 0.00075 
2864 1 0.00339051 0.028378 0.0221981 0.00075 
3065 1 0.00498377 0.0284993 0.0217443 0.0005 
2449 1 0.00725029 0.0285471 0.0213067 0.0005 
1480 1 0.00614658 0.0287325 0.02075 0.00075 
1103 1 0.00492183 0.0287867 0.0205 0.0005 
138 1 0.0077248 0.02892 0.0205 0.0005 
162 1 0.000501417 0.0314631 0.0205 0.0005 
259 1 0.00384481 0.0321736 0.0205 0.0005 
522 1 0.00170371 0.033721 0.0207499 0.00075 
337 1 0.00271597 0.0300343 0.02075 0.00075 
638 1 0.00540387 0.0332001 0.02075 0.00075 
506 1 0.000579558 0.0342673 0.0207625 0.0005 
1084 1 0.00129336 0.0305102 0.0207499 0.00075 
1355 1 0.0031636 0.0333318 0.0205 0.0005 
1451 1 0.00389987 0.0285903 0.0205 0.0005 
412 1 0.00223997 0.0320742 0.0209999 0.001 
1607 1 0.00161637 0.0293269 0.0205 0.0005 
1290 1 0.000500794 0.0295751 0.0205 0.0005 
1761 1 0.00658969 0.0344675 0.0204999 0.0005 
1760 1 0.00420032 0.033435 0.0205 0.0005 
1611 1 0.00515876 0.0344233 0.0205 0.0005 
2278 1 0.00282781 0.0288147 0.0205 0.0005 
2306 1 0.00527231 0.0317059 0.02075 0.00075 
2343 1 0.00559043 0.0305225 0.0205 0.0005 
2387 1 0.00667202 0.0322451 0.0207499 0.00075 
2407 1 0.00424305 0.0310422 0.0204998 0.0005 
2421 1 0.00660322 0.0334677 0.0204999 0.0005 
672 1 0.00746404 0.035287 0.0208551 0.00075 
2537 1 0.00424665 0.0295283 0.0205 0.0005 
1872 1 0.00715191 0.0303778 0.0212811 0.00125 
1792 1 0.00409276 0.0313438 0.0217034 0.00075 
2484 1 0.00550813 0.0308605 0.0216402 0.0005 
2573 1 0.00515988 0.0296989 0.0213363 0.00075 
1993 1 0.00211946 0.0288506 0.0215507 0.00075 
2455 1 0.00749526 0.03289 0.0214748 0.0005 
2622 1 0.00663705 0.0319132 0.0219546 0.0005 
1291 1 0.000772619 0.0330074 0.0216848 0.00075 
2548 1 0.00292728 0.0308977 0.0216288 0.0005 
2570 1 0.00584791 0.0324684 0.0216628 0.0005 
897 1 0.000500182 0.0333053 0.0205 0.0005 
1168 1 0.00423855 0.0328376 0.0216221 0.00075 
1136 1 0.000750198 0.0315077 0.0217309 0.00075 
2381 1 0.00416109 0.028949 0.0213962 0.0005 
2530 1 0.00390179 0.0302845 0.0210561 0.0005 
2154 1 0.000751169 0.0295197 0.0217403 0.00075 
535 1 0.00146968 0.0349803 0.0205 0.0005 
2604 1 0.00644006 0.0341007 0.0222043 0.00125 
2371 1 0.00191504 0.0308371 0.0217838 0.0005 
2660 1 0.00481226 0.0304793 0.0222488 0.0005 
2423 1 0.0063287 0.0288327 0.0222478 0.00075 
2337 1 0.00754311 0.0331075 0.0205 0.0005 
2626 1 0.0052365 0.031753 0.0220009 0.0005 
2456 1 0.00763068 0.0319773 0.0218619 0.0005 
2628 1 0.00178225 0.0335813 0.0221588 0.0005 
2874 1 0.00775789 0.0352459 0.0220771 0.0005 
835 1 0.00764475 0.0341023 0.0204999 0.0005 
2718 1 0.00346667 0.0298755 0.0221544 0.00075 
1417 1 0.000819587 0.0344809 0.021971 0.00075 
2759 1 0.00219739 0.0299594 0.0221717 0.0005 
2152 1 0.000499963 0.0352288 0.0204999 0.0005 
2631 1 0.00510165 0.029197 0.0224818 0.0005 
1935 1 0.0112189 0.0283857 0.0205 0.0005 
2493 1 0.00861757 0.0353903 0.0213505 0.0005 
2772 1 0.00827589 0.0297477 0.022466 0.0005 
2393 1 0.0115159 0.028549 0.021589 0.0005 
1987 1 0.0149169 0.0286526 0.0218375 0.0005 
1870 1 0.014303 0.0287037 0.0207499 0.00075 
2301 1 0.0126734 0.0292394 0.0220967 0.00075 
505 1 0.00848949 0.029565 0.0204995 0.0005 
886 1 0.0087094 0.0305402 0.0205 0.0005 
1249 1 0.0130264 0.0327393 0.02075 0.00075 
1154 1 0.0108284 0.0324154 0.0205 0.0005 
609 1 0.0118251 0.032501 0.0204999 0.0005 
1134 1 0.00819763 0.032045 0.02075 0.00075 
1340 1 0.0112529 0.033321 0.0204999 0.0005 
1678 1 0.0121975 0.033649 0.0204999 0.0005 
1703 1 0.0106408 0.0314331 0.0205 0.0005 
1095 1 0.0132054 0.0339507 0.0204999 0.0005 
1815 1 0.00925452 0.0313782 0.0204999 0.0005 
1348 1 0.0131207 0.0302208 0.0204999 0.0005 
2043 1 0.0107219 0.0292534 0.0205 0.0005 
1867 1 0.00853163 0.0335104 0.0211522 0.00075 
1793 1 0.0144606 0.0298693 0.0219277 0.00075 
2242 1 0.0120145 0.0311005 0.0210022 0.001 
2245 1 0.00997553 0.0307009 0.0212639 0.00075 
2266 1 0.0131151 0.0290011 0.0204999 0.0005 
1954 1 0.0108732 0.0302636 0.0205 0.0005 
1762 1 0.00875279 0.0310841 0.021368 0.0005 
640 1 0.00961094 0.0325496 0.0207498 0.00075 
2323 1 0.012521 0.0346803 0.0205 0.0005 
2362 1 0.0141196 0.0299145 0.0204999 0.0005 
2347 1 0.0115456 0.0344073 0.0205 0.0005 
1361 1 0.0153272 0.0302036 0.0207499 0.00075 
2202 1 0.014003 0.0313139 0.0210267 0.001 
2451 1 0.0119474 0.0293701 0.02075 0.00075 
1083 1 0.0147518 0.0336186 0.0212499 0.00125 
2305 1 0.0153503 0.0310685 0.0216521 0.0005 
2225 1 0.00983802 0.0297211 0.0205 0.0005 
2408 1 0.0132526 0.0346164 0.0212444 0.0005 
2304 1 0.0101432 0.0341975 0.0209998 0.001 
2574 1 0.0134717 0.0296094 0.0212089 0.0005 
698 1 0.015631 0.0318932 0.0207499 0.00075 
2317 1 0.011086 0.0299507 0.0224183 0.001 
2404 1 0.0124659 0.0337669 0.0217149 0.00075 
2390 1 0.009026 0.0319868 0.0217004 0.0005 
2252 1 0.0120222 0.0325815 0.021477 0.0005 
2577 1 0.0113127 0.0332865 0.0214975 0.0005 
2505 1 0.0130921 0.0303674 0.0217517 0.0005 
2439 1 0.0157053 0.0323122 0.0219252 0.0005 
2247 1 0.0115669 0.0347217 0.021449 0.0005 
1786 1 0.0155144 0.0289931 0.0205 0.0005 
2469 1 0.00899371 0.0350227 0.0205 0.0005 
2412 1 0.013536 0.030986 0.022414 0.0005 
2379 1 0.0123793 0.0312921 0.0224444 0.0005 
2612 1 0.00843229 0.0345433 0.0218492 0.0005 
2443 1 0.00887912 0.030088 0.0214157 0.0005 
2502 1 0.014813 0.0319138 0.0221376 0.0005 
2887 1 0.0101379 0.0329383 0.0218143 0.0005 
2217 1 0.00946483 0.035178 0.0219191 0.0005 
2357 1 0.0111598 0.0340865 0.0224456 0.00075 
2239 1 0.0121632 0.0348234 0.0223104 0.0005 
2639 1 0.00821453 0.0313052 0.0223174 0.0005 
2349 1 0.0106364 0.0351498 0.0220484 0.0005 
1167 1 0.0141794 0.0351047 0.0205 0.0005 
1594 1 0.0139492 0.0352638 0.0215533 0.0005 
924 1 0.0110101 0.0353147 0.0204999 0.0005 
2391 1 0.0130065 0.0352949 0.0219373 0.0005 
1854 1 0.016095 0.0290293 0.0216574 0.00075 
1409 1 0.0165542 0.0289158 0.0205 0.0005 
1113 1 0.0176161 0.029526 0.0207499 0.00075 
1044 1 0.0196674 0.0293149 0.0212499 0.00125 