ITEM: TIMESTEP
210000
ITEM: NUMBER OF ATOMS
1910
ITEM: BOX BOUNDS mm mm mm
-2.4e-06 0.0240024
-7.8e-06 0.0780078
-3e-06 0.030003
ITEM: ATOMS id type x y z radius 
324 1 0.00769239 0.00385269 0.0219999 0.002 
291 1 0.00264942 0.00152854 0.0214999 0.0015 
368 1 0.000499996 0.00121152 0.0205 0.0005 
784 1 0.00530657 0.00300928 0.02075 0.00075 
32 1 0.00524684 0.000499931 0.0205 0.0005 
241 1 0.00434967 0.00224494 0.0205 0.0005 
815 1 0.000998658 0.0020783 0.0205 0.0005 
448 1 0.00364005 0.00294943 0.0205 0.0005 
300 1 0.000499999 0.000499988 0.0212026 0.0005 
442 1 0.00102178 0.0035132 0.0209999 0.001 
816 1 0.00577345 0.00498794 0.0205 0.0005 
710 1 0.00404301 0.000499953 0.0205 0.0005 
527 1 0.000504442 0.00483313 0.0205 0.0005 
256 1 0.000506566 0.0059566 0.0205 0.0005 
870 1 0.00769553 0.0058524 0.0204998 0.0005 
100 1 0.00438988 0.00251311 0.0214627 0.0005 
153 1 0.00464497 0.00129362 0.0205872 0.0005 
486 1 0.00362952 0.00509668 0.0222498 0.00225 
722 1 0.00150344 0.00496091 0.0205 0.0005 
864 1 0.00445032 0.000620749 0.0214052 0.0005 
503 1 0.000500179 0.00487156 0.0214992 0.0005 
561 1 0.00587428 0.00162082 0.02075 0.00075 
501 1 0.00584353 0.000499983 0.0213024 0.0005 
64 1 0.0063584 0.00634613 0.0209995 0.001 
954 1 0.0064589 0.000501295 0.0205 0.0005 
274 1 0.00772031 0.00685194 0.0204999 0.0005 
75 1 0.0015465 0.00664881 0.0207495 0.00075 
1195 1 0.00775885 0.00135987 0.0218232 0.0005 
390 1 0.000500394 0.00587543 0.0214966 0.0005 
842 1 0.00627422 0.00586852 0.0224195 0.0005 
887 1 0.00652941 0.00687544 0.0223919 0.0005 
380 1 0.00498537 0.00685088 0.0205 0.0005 
998 1 0.000981864 0.00684315 0.0221247 0.00075 
979 1 0.00734652 0.00629953 0.0223813 0.0005 
587 1 0.000506763 0.0041911 0.0222363 0.0005 
370 1 0.00795565 0.000749995 0.02075 0.00075 
1492 1 0.000500311 0.00520965 0.0224403 0.0005 
28 1 0.000749952 0.000749973 0.0224208 0.00075 
121 1 0.00870719 0.00650793 0.0205001 0.0005 
228 1 0.00885995 0.00547621 0.0204999 0.0005 
490 1 0.00967752 0.00409984 0.0204998 0.0005 
199 1 0.0117421 0.00275153 0.0205 0.0005 
395 1 0.0108135 0.00238042 0.0205 0.0005 
474 1 0.0137777 0.00150011 0.0207499 0.00075 
282 1 0.0107439 0.00138262 0.0205 0.0005 
590 1 0.0102007 0.000501384 0.0205 0.0005 
176 1 0.0128983 0.000507965 0.0205 0.0005 
289 1 0.0112145 0.000500013 0.0205 0.0005 
362 1 0.00915974 0.000526035 0.0205 0.0005 
783 1 0.0107614 0.00367715 0.0205 0.0005 
51 1 0.0130266 0.00262017 0.0205 0.0005 
233 1 0.00962728 0.00188685 0.0207499 0.00075 
217 1 0.0106091 0.0046659 0.0205 0.0005 
636 1 0.0118414 0.00603504 0.0205 0.0005 
549 1 0.0100402 0.00447553 0.0213523 0.0005 
126 1 0.0123474 0.00437507 0.0214999 0.0015 
307 1 0.00836209 0.00193194 0.0205 0.0005 
676 1 0.0101237 0.000839662 0.0217018 0.00075 
209 1 0.0138818 0.00556009 0.0205 0.0005 
730 1 0.00867612 0.00160683 0.021511 0.0005 
764 1 0.0102678 0.00621031 0.0212499 0.00125 
311 1 0.013768 0.0064648 0.0217524 0.001 
192 1 0.0152015 0.00641479 0.0207499 0.00075 
763 1 0.00954865 0.00310857 0.0204999 0.0005 
66 1 0.0140739 0.00456462 0.0205 0.0005 
61 1 0.0147774 0.00512821 0.0209432 0.0005 
108 1 0.0147953 0.00314756 0.0212498 0.00125 
581 1 0.0120229 0.00652775 0.0221634 0.00075 
89 1 0.0089413 0.00050013 0.021477 0.0005 
155 1 0.0120161 0.00149446 0.0216964 0.00125 
178 1 0.0150763 0.000749836 0.0207499 0.00075 
364 1 0.0103344 0.00301038 0.0214674 0.00075 
161 1 0.0232494 0.000749849 0.0207501 0.00075 
159 1 0.022787 0.00338322 0.0204999 0.0005 
204 1 0.0235001 0.004084 0.0205 0.0005 
219 1 0.0214495 0.0010002 0.0209998 0.001 
333 1 0.0232458 0.00390022 0.0217099 0.00075 
142 1 0.02325 0.00224969 0.0207507 0.00075 
200 1 0.0202437 0.00275836 0.02075 0.00075 
340 1 0.0220514 0.00446249 0.0207499 0.00075 
452 1 0.0235 0.00508391 0.0204999 0.0005 
518 1 0.019183 0.00125751 0.02075 0.00075 
185 1 0.0164986 0.00497681 0.0212492 0.00125 
31 1 0.0170605 0.00149989 0.0214997 0.0015 
123 1 0.0228442 0.00101649 0.0224331 0.001 
273 1 0.0218064 0.00290134 0.0215274 0.001 
113 1 0.0174441 0.0034255 0.0205 0.0005 
544 1 0.0186927 0.00453846 0.021 0.001 
577 1 0.0232432 0.00560677 0.0216058 0.00075 
652 1 0.0180302 0.00561689 0.0218073 0.0005 
290 1 0.0187445 0.00280726 0.02075 0.00075 
281 1 0.0201221 0.00386647 0.0217536 0.00075 
190 1 0.0177641 0.00644291 0.02075 0.00075 
57 1 0.0206072 0.00607613 0.0215005 0.0015 
143 1 0.0226211 0.00557211 0.0205 0.0005 
853 1 0.0188808 0.00594007 0.0205 0.0005 
106 1 0.0222175 0.00495632 0.0219017 0.0005 
1012 1 0.0185179 0.00674814 0.0220192 0.00075 
109 1 0.0188964 0.00695202 0.0205 0.0005 
1359 1 0.00294729 0.00720189 0.0205 0.0005 
588 1 0.00394599 0.00725431 0.0205 0.0005 
360 1 0.00653037 0.0122844 0.0205 0.0005 
154 1 0.00473538 0.00819328 0.0207498 0.00075 
13 1 0.000500072 0.0072901 0.0205 0.0005 
879 1 0.0058385 0.00766137 0.0204999 0.0005 
137 1 0.000696422 0.00827115 0.0205 0.0005 
44 1 0.00515151 0.0097519 0.02075 0.00075 
401 1 0.00586789 0.0113696 0.0220309 0.00125 
1166 1 0.0055482 0.00762685 0.0218766 0.00075 
1234 1 0.00555468 0.00891172 0.0215927 0.0005 
323 1 0.00249629 0.00918506 0.0220002 0.002 
820 1 0.000499287 0.00925241 0.0204993 0.0005 
1067 1 0.00746865 0.0127059 0.0205002 0.0005 
713 1 0.00245271 0.0111851 0.0205 0.0005 
881 1 0.000500313 0.0102546 0.0205 0.0005 
943 1 0.00327133 0.0117595 0.0205 0.0005 
673 1 0.00419975 0.0109608 0.02075 0.00075 
174 1 0.000999376 0.0115839 0.0209995 0.001 
447 1 0.00602516 0.00874538 0.0205 0.0005 
1070 1 0.00767993 0.00727557 0.0216751 0.00075 
737 1 0.00537816 0.0123964 0.0205 0.0005 
646 1 0.00147732 0.0132983 0.0205 0.0005 
508 1 0.000506064 0.0129457 0.0205 0.0005 
611 1 0.00772292 0.0137165 0.0205 0.0005 
70 1 0.000500014 0.0139457 0.0205 0.0005 
35 1 0.00789951 0.00950956 0.0218274 0.0015 
872 1 0.00740297 0.0114213 0.02075 0.00075 
439 1 0.00614638 0.0138533 0.0212499 0.00125 
891 1 0.00683171 0.00783408 0.0205 0.0005 
427 1 0.00446057 0.00771476 0.0224894 0.0005 
1190 1 0.00491672 0.00865482 0.0223727 0.0005 
171 1 0.0124693 0.00709161 0.02075 0.00075 
275 1 0.0133552 0.00830202 0.02075 0.00075 
46 1 0.00878754 0.00774526 0.0207499 0.00075 
556 1 0.0130811 0.00983621 0.02075 0.00075 
287 1 0.0115904 0.0104983 0.0204999 0.0005 
865 1 0.0136981 0.0117088 0.0205 0.0005 
756 1 0.0112042 0.00879874 0.0214997 0.0015 
318 1 0.0132493 0.00808587 0.0222342 0.00075 
686 1 0.00929181 0.00886531 0.0205 0.0005 
10 1 0.0145453 0.00855922 0.0210429 0.0005 
569 1 0.0122606 0.0107838 0.021185 0.0005 
252 1 0.00857852 0.0109396 0.0205 0.0005 
188 1 0.0148543 0.0129984 0.0214999 0.0015 
772 1 0.0120129 0.0114687 0.0204999 0.0005 
709 1 0.00970795 0.0103011 0.0207492 0.00075 
1061 1 0.0110094 0.011419 0.0205 0.0005 
110 1 0.0128733 0.0122858 0.0205 0.0005 
1118 1 0.00979432 0.010166 0.0219891 0.0005 
59 1 0.0114357 0.0123238 0.0205 0.0005 
974 1 0.0118634 0.013243 0.0205 0.0005 
734 1 0.0121453 0.0121782 0.0215203 0.00075 
968 1 0.011508 0.0109082 0.0222392 0.00075 
62 1 0.00946902 0.0127377 0.0219998 0.002 
1238 1 0.00953568 0.00771892 0.021751 0.0005 
1028 1 0.0129026 0.0103604 0.0221702 0.00075 
1653 1 0.0139523 0.00929831 0.0214695 0.0005 
1846 1 0.0158331 0.00746485 0.0205 0.0005 
80 1 0.0158678 0.0106132 0.0210007 0.001 
714 1 0.0162683 0.0119928 0.0205 0.0005 
342 1 0.0168093 0.0118704 0.0217817 0.00075 
319 1 0.0216061 0.00749067 0.0205 0.0005 
6 1 0.023 0.00725157 0.0209999 0.001 
293 1 0.018968 0.0105839 0.0217499 0.00175 
735 1 0.0211751 0.0102962 0.021422 0.0005 
308 1 0.0206845 0.00856334 0.021 0.001 
49 1 0.0177781 0.00914036 0.0204999 0.0005 
146 1 0.0196981 0.00754994 0.0205 0.0005 
578 1 0.0229998 0.00925155 0.0209999 0.001 
139 1 0.0172539 0.0134895 0.0210006 0.001 
90 1 0.0191443 0.00806397 0.021664 0.00075 
71 1 0.0210245 0.00993994 0.0204999 0.0005 
659 1 0.0179626 0.00792968 0.02075 0.00075 
967 1 0.01696 0.00971534 0.0205 0.0005 
130 1 0.0219571 0.0119843 0.0205 0.0005 
41 1 0.0221167 0.0107689 0.0207498 0.00075 
231 1 0.0234987 0.0105985 0.0205 0.0005 
279 1 0.0234998 0.00824195 0.0220113 0.0005 
693 1 0.0217383 0.00771944 0.0216637 0.0005 
725 1 0.0232501 0.0112745 0.0215921 0.00075 
697 1 0.0209028 0.010933 0.0205 0.0005 
330 1 0.0230694 0.0125026 0.0207499 0.00075 
78 1 0.0230796 0.0137273 0.0205 0.0005 
800 1 0.0205388 0.0118646 0.0205 0.0005 
538 1 0.0234712 0.0125385 0.0219326 0.0005 
1236 1 0.0192007 0.0127968 0.0212709 0.0005 
812 1 0.0223393 0.0119414 0.0221302 0.0005 
944 1 0.0234996 0.0134756 0.0214068 0.0005 
794 1 0.0183608 0.0128796 0.0218117 0.0005 
592 1 0.0184104 0.0123716 0.0205 0.0005 
910 1 0.0216895 0.00941918 0.0221487 0.00075 
523 1 0.0186778 0.0133797 0.0205 0.0005 
956 1 0.019655 0.0123348 0.0205 0.0005 
350 1 0.0210593 0.0135243 0.0215 0.0015 
1193 1 0.0190351 0.013788 0.0213894 0.0005 
345 1 0.0193636 0.0141076 0.0205001 0.0005 
639 1 0.0231103 0.0140656 0.0221148 0.0005 
1899 1 0.0166289 0.00886507 0.0211682 0.0005 
888 1 0.00375031 0.0146475 0.0205004 0.0005 
550 1 0.00060272 0.019339 0.0205 0.0005 
1 1 0.00667417 0.0157165 0.02075 0.00075 
529 1 0.00126767 0.0158958 0.0212499 0.00125 
269 1 0.00599011 0.0179033 0.0215298 0.00125 
19 1 0.00411246 0.0162756 0.0212499 0.00125 
1077 1 0.00571876 0.0164828 0.0205 0.0005 
877 1 0.00694838 0.0202177 0.0205 0.0005 
1060 1 0.0070206 0.0162763 0.0219063 0.0005 
1004 1 0.00485535 0.0193579 0.02075 0.00075 
1196 1 0.0079457 0.0169481 0.0224414 0.0005 
678 1 0.00101564 0.0212491 0.0209999 0.001 
1570 1 0.00661514 0.0191754 0.0205 0.0005 
688 1 0.00050157 0.0199111 0.0214469 0.0005 
896 1 0.0058783 0.0201338 0.0205 0.0005 
1660 1 0.00432464 0.0178633 0.0205 0.0005 
972 1 0.00587678 0.0157863 0.0220895 0.00075 
223 1 0.0023456 0.018651 0.0217499 0.00175 
700 1 0.00410502 0.0206777 0.02075 0.00075 
748 1 0.00778682 0.0146537 0.0221683 0.0005 
695 1 0.00814278 0.0148678 0.02075 0.00075 
54 1 0.00817122 0.0165998 0.0209999 0.001 
786 1 0.0088858 0.0153769 0.0221498 0.0005 
180 1 0.00886348 0.0193488 0.0219998 0.002 
221 1 0.0106084 0.016355 0.0214999 0.0015 
118 1 0.012998 0.0150167 0.0212499 0.00125 
198 1 0.0155848 0.0187694 0.0212499 0.00125 
717 1 0.01242 0.0183076 0.0208046 0.0005 
1232 1 0.00942315 0.0150868 0.0205 0.0005 
934 1 0.0137689 0.0196365 0.02075 0.00075 
1310 1 0.0131112 0.0173156 0.0204998 0.0005 
1212 1 0.0140799 0.018249 0.0205 0.0005 
1338 1 0.0152887 0.0165941 0.0205 0.0005 
838 1 0.0137009 0.0175764 0.0218538 0.001 
624 1 0.012502 0.0165214 0.0205062 0.0005 
1035 1 0.0112449 0.0185745 0.0205 0.0005 
43 1 0.0146128 0.0150013 0.0205 0.0005 
1592 1 0.011652 0.019459 0.0207452 0.0005 
1577 1 0.0148758 0.0201831 0.0205 0.0005 
1636 1 0.0128849 0.021202 0.0215365 0.001 
982 1 0.0154922 0.0209765 0.0205 0.0005 
1264 1 0.0100845 0.0210568 0.0205 0.0005 
741 1 0.0182547 0.014446 0.0216011 0.0005 
450 1 0.0183173 0.0144211 0.0204999 0.0005 
189 1 0.0161531 0.0153243 0.0205 0.0005 
1311 1 0.0165268 0.0201187 0.0205 0.0005 
947 1 0.0177241 0.0187963 0.0205 0.0005 
542 1 0.0182226 0.0156788 0.0219204 0.00075 
272 1 0.0235002 0.0146344 0.0204999 0.0005 
260 1 0.01739 0.0169698 0.0209999 0.001 
591 1 0.0225098 0.0153543 0.0207502 0.00075 
465 1 0.0187007 0.0164385 0.0205 0.0005 
719 1 0.0191515 0.0153077 0.0207832 0.00075 
628 1 0.0235 0.0160934 0.0205 0.0005 
42 1 0.0228909 0.0173007 0.0207499 0.00075 
747 1 0.0212892 0.0154523 0.0204999 0.0005 
813 1 0.0204248 0.0161021 0.0205 0.0005 
787 1 0.0194264 0.0171265 0.0205003 0.0005 
492 1 0.0204594 0.0171014 0.0205008 0.0005 
238 1 0.0234991 0.018365 0.0205 0.0005 
1216 1 0.0193939 0.0165779 0.021632 0.00075 
1230 1 0.0173933 0.0152249 0.02075 0.00075 
566 1 0.0214265 0.0178588 0.02075 0.00075 
1333 1 0.021812 0.016696 0.0205 0.0005 
1091 1 0.0198709 0.0180225 0.0205 0.0005 
1398 1 0.0205778 0.0203176 0.0205001 0.0005 
1189 1 0.023495 0.0147719 0.0214905 0.0005 
1427 1 0.0203517 0.0151049 0.0204999 0.0005 
898 1 0.0201616 0.0175821 0.0213539 0.0005 
1253 1 0.0194749 0.0147726 0.0219035 0.0005 
1452 1 0.0203885 0.0191194 0.020804 0.00075 
1488 1 0.0188881 0.0191803 0.02075 0.00075 
1124 1 0.0234928 0.0157719 0.0214477 0.0005 
1137 1 0.0210396 0.0177789 0.0219358 0.0005 
1184 1 0.0234799 0.0182584 0.0224384 0.0005 
1020 1 0.0224356 0.0197166 0.0215226 0.0015 
1401 1 0.0213619 0.0162736 0.0218696 0.001 
1298 1 0.0201992 0.0154209 0.0214557 0.0005 
1170 1 0.0231618 0.0169964 0.0221935 0.00075 
1831 1 0.0173926 0.0192503 0.0218437 0.0005 
1796 1 0.0200406 0.019067 0.0223263 0.0005 
957 1 0.023475 0.0211418 0.0205146 0.0005 
1320 1 0.0193734 0.0210221 0.0207498 0.00075 
1598 1 0.0203887 0.0211504 0.0214662 0.0005 
1293 1 0.0028488 0.0214446 0.0218723 0.0005 
482 1 0.000529949 0.0229795 0.0205 0.0005 
12 1 0.000758785 0.0241871 0.0207596 0.00075 
600 1 0.00639655 0.0217112 0.0212499 0.00125 
952 1 0.00509718 0.0246811 0.0205 0.0005 
1081 1 0.00758781 0.025042 0.0205 0.0005 
1416 1 0.00246425 0.0212974 0.0205 0.0005 
904 1 0.00585704 0.0253673 0.0205 0.0005 
1439 1 0.00580557 0.0236819 0.02075 0.00075 
831 1 0.00383655 0.0256437 0.0209999 0.001 
534 1 0.000826789 0.0258603 0.0207634 0.00075 
1423 1 0.0033823 0.0276666 0.0205 0.0005 
1406 1 0.0027355 0.0265367 0.0205025 0.0005 
483 1 0.000503399 0.0273573 0.0205004 0.0005 
1394 1 0.00763174 0.0235786 0.0209999 0.001 
1483 1 0.00457968 0.0220134 0.0205144 0.0005 
1512 1 0.00216272 0.0262901 0.0213042 0.0005 
752 1 0.0040477 0.0273205 0.0211799 0.0005 
919 1 0.00747353 0.0279278 0.0217499 0.00175 
1578 1 0.00128133 0.0245294 0.0219143 0.0005 
978 1 0.00759984 0.0260435 0.0205 0.0005 
1805 1 0.0021558 0.0236928 0.0210467 0.00075 
1576 1 0.000500119 0.0268954 0.0213983 0.0005 
1373 1 0.00490016 0.0270498 0.0220813 0.00075 
1860 1 0.00308652 0.0228462 0.0209928 0.0005 
946 1 0.00607651 0.0252138 0.0222418 0.00125 
1650 1 0.00692715 0.0236418 0.0223269 0.0005 
1164 1 0.0113027 0.0213835 0.0207504 0.00075 
1144 1 0.00901472 0.0220532 0.0222958 0.0005 
1697 1 0.00918122 0.0219198 0.021029 0.0005 
780 1 0.0120756 0.0239666 0.0205 0.0005 
353 1 0.0133433 0.0237121 0.020501 0.0005 
1294 1 0.0106923 0.024024 0.0205026 0.0005 
1180 1 0.0109952 0.0225696 0.0204999 0.0005 
1208 1 0.00959647 0.0253718 0.0205029 0.0005 
1462 1 0.0113993 0.0247378 0.0205 0.0005 
1467 1 0.0122745 0.0227666 0.0205 0.0005 
1343 1 0.00948385 0.0231083 0.0207503 0.00075 
1552 1 0.0113298 0.0234051 0.0213897 0.00075 
1563 1 0.0148822 0.0252282 0.0205 0.0005 
1602 1 0.0124112 0.0253985 0.0205025 0.0005 
1621 1 0.0128354 0.0244586 0.0213676 0.00075 
861 1 0.0137635 0.0258006 0.0207498 0.00075 
1643 1 0.0088238 0.0264777 0.0205063 0.0005 
1539 1 0.0134072 0.0227132 0.0205004 0.0005 
1330 1 0.0136155 0.0253783 0.0219233 0.0005 
1192 1 0.0149309 0.026261 0.0205022 0.0005 
1041 1 0.0110114 0.0264301 0.0214999 0.0015 
1350 1 0.0147013 0.021815 0.0205 0.0005 
1614 1 0.00970233 0.0244645 0.0213562 0.00075 
1775 1 0.0152944 0.0225121 0.021639 0.0005 
1693 1 0.0137389 0.0228383 0.021436 0.0005 
1618 1 0.00892401 0.0260787 0.0217063 0.0005 
1698 1 0.00825706 0.0251351 0.0223675 0.00075 
144 1 0.0162919 0.0258219 0.0210007 0.001 
152 1 0.0187905 0.0250834 0.0205 0.0005 
1292 1 0.0185706 0.023871 0.0208213 0.00075 
512 1 0.0225183 0.0283298 0.0205122 0.0005 
862 1 0.018345 0.0272913 0.0205 0.0005 
1288 1 0.0183833 0.0222333 0.0205036 0.0005 
1105 1 0.0214557 0.0215098 0.0205045 0.0005 
1048 1 0.0202796 0.0222249 0.0207886 0.00075 
1415 1 0.0213529 0.0230887 0.0204999 0.0005 
1087 1 0.0234481 0.0268244 0.0205012 0.0005 
1176 1 0.021425 0.0265585 0.0207614 0.00075 
1269 1 0.0230014 0.0239268 0.02075 0.00075 
1507 1 0.0234763 0.0273164 0.0213766 0.0005 
1017 1 0.0161236 0.0221906 0.02075 0.00075 
1574 1 0.0234858 0.0278639 0.0205011 0.0005 
1472 1 0.0232233 0.0254515 0.0207631 0.00075 
1590 1 0.0217826 0.0242573 0.0209063 0.0005 
1738 1 0.018158 0.0214101 0.0210529 0.0005 
1634 1 0.0204243 0.0239237 0.02075 0.00075 
908 1 0.0222342 0.0239123 0.0217408 0.0005 
1219 1 0.0229746 0.0222833 0.0213505 0.001 
1202 1 0.0215966 0.0216015 0.0214984 0.0005 
1409 1 0.0182845 0.0277615 0.0218262 0.0005 
1870 1 0.0162266 0.0282322 0.0218031 0.00075 
1646 1 0.0189339 0.0216436 0.0221141 0.0005 
162 1 0.000517813 0.0313821 0.0205 0.0005 
259 1 0.00180229 0.0323059 0.0205 0.0005 
522 1 0.000803685 0.0330486 0.0207495 0.00075 
672 1 0.00487283 0.0342679 0.02075 0.00075 
348 1 0.00201754 0.0305704 0.0205065 0.0005 
337 1 0.0029237 0.0328011 0.02075 0.00075 
897 1 0.000518663 0.0343501 0.0205 0.0005 
980 1 0.00697817 0.0297487 0.0205 0.0005 
991 1 0.00475865 0.0291088 0.0212499 0.00125 
638 1 0.00399292 0.0338541 0.0218921 0.00075 
925 1 0.00527893 0.0319954 0.0212499 0.00125 
1103 1 0.00605074 0.0301404 0.0205 0.0005 
338 1 0.00181796 0.0286835 0.0217574 0.00175 
506 1 0.000499909 0.0338226 0.0216826 0.0005 
1480 1 0.00698234 0.0309423 0.021125 0.00075 
1084 1 0.00206068 0.0314776 0.0214034 0.00075 
1355 1 0.00193388 0.0334093 0.0212156 0.0005 
1143 1 0.00345369 0.0305962 0.0207553 0.00075 
471 1 0.00719991 0.0337103 0.0221008 0.00125 
1451 1 0.00567119 0.0303437 0.0221707 0.0005 
412 1 0.00104755 0.0326171 0.0224272 0.001 
1285 1 0.000750412 0.03088 0.0223815 0.00075 
505 1 0.00819411 0.0310145 0.0205 0.0005 
1869 1 0.00989983 0.0299344 0.0214995 0.0005 
261 1 0.0137106 0.031446 0.0205 0.0005 
886 1 0.00966747 0.0333165 0.0205008 0.0005 
138 1 0.00810766 0.0299639 0.020846 0.0005 
984 1 0.0122109 0.0291809 0.0214996 0.0015 
1249 1 0.015083 0.0314875 0.02075 0.00075 
1154 1 0.0115606 0.0343926 0.0205 0.0005 
609 1 0.0131946 0.033366 0.0205 0.0005 
1134 1 0.00924118 0.0344671 0.0207521 0.00075 
1340 1 0.0105149 0.0348487 0.0205054 0.0005 
1678 1 0.0143161 0.0343629 0.0205839 0.0005 
924 1 0.0125508 0.0345325 0.0205 0.0005 
1762 1 0.0132012 0.0341895 0.0211777 0.0005 
1703 1 0.0142746 0.030349 0.021602 0.0005 
1095 1 0.0150009 0.0348273 0.0213753 0.0005 
1872 1 0.0106042 0.032393 0.0216601 0.00125 
1167 1 0.0158349 0.0352424 0.0205 0.0005 
1106 1 0.0201146 0.0286497 0.02125 0.00125 
1370 1 0.0232414 0.0285341 0.0215311 0.00075 
1113 1 0.0190279 0.0302537 0.02075 0.00075 
1361 1 0.0173249 0.0293685 0.02075 0.00075 
1044 1 0.0219172 0.030383 0.0212499 0.00125 
557 1 0.0211687 0.0340281 0.0212511 0.00125 
1015 1 0.0229876 0.0292128 0.0205 0.0005 
698 1 0.0172993 0.0308853 0.02075 0.00075 
304 1 0.0226532 0.0318964 0.0205 0.0005 
1083 1 0.0165048 0.0328023 0.0212499 0.00125 
1142 1 0.022573 0.0347615 0.0205 0.0005 
1335 1 0.0184338 0.0326996 0.0205022 0.0005 
1348 1 0.0160397 0.030506 0.0205 0.0005 
1273 1 0.0231249 0.0347518 0.0213509 0.0005 
1414 1 0.0234997 0.0343839 0.0205 0.0005 
1016 1 0.0230963 0.0330635 0.0207504 0.00075 
959 1 0.0195681 0.0339664 0.0205 0.0005 
1531 1 0.0199909 0.0326736 0.0205 0.0005 
1329 1 0.023499 0.0300727 0.0205002 0.0005 
1318 1 0.0211795 0.0324342 0.0205295 0.0005 
1305 1 0.0201234 0.0314498 0.0207697 0.00075 
1258 1 0.0234987 0.0313307 0.0204988 0.0005 
1695 1 0.0191535 0.0331418 0.0217654 0.001 
1224 1 0.0185025 0.0315161 0.02139 0.00075 
878 1 0.0232445 0.033638 0.022152 0.00075 
1213 1 0.0221463 0.0323293 0.0216471 0.00075 
1323 1 0.0218809 0.0286276 0.0213237 0.0005 
1447 1 0.019137 0.0304613 0.0222488 0.00075 
1603 1 0.0180296 0.0301975 0.021506 0.0005 
1403 1 0.0203477 0.0302205 0.0220428 0.0005 
1445 1 0.0234784 0.0317214 0.021418 0.0005 
1544 1 0.0176283 0.0346876 0.0224468 0.00125 
986 1 0.0196235 0.0347862 0.0222791 0.00075 
1073 1 0.00497152 0.0358203 0.0207562 0.00075 
249 1 0.00201199 0.0357879 0.0219998 0.002 
960 1 0.00730626 0.036378 0.0212396 0.00075 
535 1 0.000509003 0.0373779 0.0205 0.0005 
844 1 0.00382623 0.0366793 0.0205 0.0005 
60 1 0.00501104 0.0381961 0.0217499 0.00175 
451 1 0.000750081 0.0406255 0.0207499 0.00075 
366 1 0.00156012 0.0378289 0.0204999 0.0005 
680 1 0.00271865 0.0382255 0.02075 0.00075 
519 1 0.000507835 0.0418295 0.0205002 0.0005 
247 1 0.0017422 0.042508 0.0207495 0.00075 
733 1 0.00257821 0.0413685 0.0205002 0.0005 
1108 1 0.000749758 0.0387471 0.0207493 0.00075 
615 1 0.00522946 0.0401228 0.0205 0.0005 
1186 1 0.00296007 0.0423169 0.0205 0.0005 
316 1 0.000499903 0.0378148 0.0215433 0.0005 
1276 1 0.00258228 0.0399528 0.0209999 0.001 
1177 1 0.00439993 0.0416221 0.0212499 0.00125 
1372 1 0.00752203 0.0385742 0.0220315 0.00075 
949 1 0.00708342 0.0393188 0.02075 0.00075 
1301 1 0.00647631 0.0417366 0.0207647 0.00075 
1191 1 0.000999726 0.0396809 0.0222072 0.001 
91 1 0.00741824 0.0377931 0.0207509 0.00075 
1537 1 0.00255076 0.0420082 0.0219129 0.00075 
1497 1 0.000756204 0.0418058 0.0217288 0.00075 
682 1 0.00750212 0.0424273 0.0205 0.0005 
626 1 0.00807555 0.0404435 0.0207497 0.00075 
1353 1 0.0103736 0.0365309 0.0216582 0.0005 
1419 1 0.0125186 0.0365352 0.02075 0.00075 
640 1 0.0095693 0.036229 0.02075 0.00075 
514 1 0.00936853 0.0417014 0.0205 0.0005 
641 1 0.0102413 0.0405167 0.0209999 0.001 
1019 1 0.0150908 0.0365451 0.0205 0.0005 
669 1 0.0089146 0.0389238 0.0209999 0.001 
835 1 0.00917011 0.0373953 0.0205 0.0005 
802 1 0.0125304 0.0415551 0.02075 0.00075 
1043 1 0.0138028 0.0403785 0.0209999 0.001 
1107 1 0.0110725 0.0370299 0.02075 0.00075 
901 1 0.0105876 0.0384551 0.02075 0.00075 
1149 1 0.0135855 0.0360894 0.0217718 0.00075 
1482 1 0.0119005 0.0403257 0.0215299 0.00075 
1265 1 0.0119118 0.0386075 0.0206085 0.0005 
1705 1 0.0128278 0.0378138 0.0205 0.0005 
1716 1 0.0157485 0.0415691 0.0205 0.0005 
912 1 0.00903117 0.0363068 0.0224135 0.001 
1346 1 0.0120505 0.0375132 0.0217934 0.00075 
1741 1 0.0108847 0.0404324 0.0223813 0.0005 
1484 1 0.0109919 0.0419261 0.0222911 0.001 
1743 1 0.0158002 0.0389488 0.0216558 0.001 
621 1 0.00884711 0.0413258 0.0216853 0.00075 
1661 1 0.0123679 0.0414005 0.0219797 0.0005 
1487 1 0.0115983 0.0423543 0.0205014 0.0005 
1644 1 0.00849261 0.042251 0.0205 0.0005 
1572 1 0.0108309 0.038934 0.022436 0.001 
328 1 0.010099 0.0424126 0.0205 0.0005 
1131 1 0.0142089 0.0424776 0.0205 0.0005 
1504 1 0.0133394 0.0378418 0.0223607 0.0005 
889 1 0.0234997 0.0357151 0.0214273 0.0005 
1145 1 0.017907 0.0357074 0.0207496 0.00075 
1120 1 0.0199941 0.0358756 0.0207539 0.00075 
909 1 0.0234862 0.0361081 0.0205034 0.0005 
268 1 0.0166521 0.038399 0.0205 0.0005 
1278 1 0.0192885 0.0393806 0.0205 0.0005 
1033 1 0.0192482 0.0393207 0.0224025 0.001 
1307 1 0.0201842 0.0371226 0.0205 0.0005 
1018 1 0.0186872 0.0402339 0.0205 0.0005 
973 1 0.0199405 0.04056 0.0205 0.0005 
1148 1 0.0178734 0.0376222 0.0212171 0.0005 
990 1 0.0220515 0.0360823 0.0210004 0.001 
1003 1 0.0199844 0.038371 0.02075 0.00075 
374 1 0.0232442 0.0384065 0.0207499 0.00075 
394 1 0.018273 0.0385599 0.0205 0.0005 
326 1 0.0235 0.0400156 0.0205 0.0005 
650 1 0.021521 0.0398408 0.0214999 0.0015 
848 1 0.0213037 0.0376445 0.02075 0.00075 
993 1 0.0234961 0.0410184 0.0205 0.0005 
996 1 0.0177437 0.036921 0.0204999 0.0005 
892 1 0.0189543 0.037109 0.0207504 0.00075 
856 1 0.0168803 0.0374254 0.0205 0.0005 
1261 1 0.0234951 0.0372054 0.0205 0.0005 
1117 1 0.020522 0.0414158 0.0205 0.0005 
1181 1 0.0162966 0.0363777 0.0209165 0.00075 
1268 1 0.0225113 0.0374194 0.0205 0.0005 
1135 1 0.0214592 0.0422584 0.02075 0.00075 
1422 1 0.0183122 0.0416411 0.0210003 0.001 
1663 1 0.0189517 0.0357626 0.021461 0.0005 
1062 1 0.0229615 0.0422009 0.02075 0.00075 
1559 1 0.0187711 0.0382559 0.0213334 0.0005 
1709 1 0.0164274 0.0423804 0.0205062 0.0005 
1051 1 0.0197036 0.0375437 0.0219769 0.00075 
1165 1 0.0206413 0.0363576 0.022041 0.00075 
1506 1 0.018552 0.0370203 0.0219314 0.0005 
1802 1 0.0162211 0.0372869 0.0219109 0.0005 
1431 1 0.0204576 0.0417916 0.0219309 0.00075 
1747 1 0.0182953 0.0381719 0.0222171 0.0005 
1882 1 0.0171534 0.0408209 0.0205122 0.0005 
1549 1 0.0234847 0.0359817 0.0223901 0.0005 
309 1 0.00565538 0.0426456 0.0205 0.0005 
554 1 0.000505928 0.0428474 0.0206281 0.0005 
1215 1 0.0029387 0.0434017 0.0211657 0.0005 
570 1 0.00361889 0.0430948 0.0205 0.0005 
668 1 0.00051498 0.0439853 0.0205 0.0005 
386 1 0.00151566 0.0438586 0.0205 0.0005 
433 1 0.00315626 0.0441832 0.0205033 0.0005 
584 1 0.00522283 0.0443337 0.02075 0.00075 
579 1 0.000754691 0.0495334 0.02075 0.00075 
242 1 0.00616133 0.0451218 0.0205 0.0005 
814 1 0.00259842 0.0482157 0.02075 0.00075 
987 1 0.00423337 0.0456536 0.0205 0.0005 
762 1 0.000500949 0.0483721 0.0212261 0.0005 
1387 1 0.00553498 0.0470415 0.0209999 0.001 
236 1 0.00200724 0.0458339 0.0219998 0.002 
1432 1 0.00544646 0.0431237 0.021362 0.0005 
1030 1 0.00528588 0.0493718 0.0205 0.0005 
1390 1 0.00195624 0.0492914 0.0205 0.0005 
1357 1 0.00646729 0.0435653 0.0205624 0.0005 
1351 1 0.00427538 0.044695 0.0215029 0.0005 
1378 1 0.00442422 0.0434056 0.0210057 0.0005 
1853 1 0.00177159 0.0490049 0.0216651 0.0005 
1571 1 0.0128125 0.0430861 0.0208273 0.00075 
533 1 0.0089227 0.0433871 0.0207974 0.00075 
1100 1 0.00955763 0.0464774 0.02075 0.00075 
40 1 0.00928559 0.0493585 0.0205 0.0005 
883 1 0.0152677 0.0480536 0.0205 0.0005 
453 1 0.0119091 0.0481928 0.0219998 0.002 
1194 1 0.0126834 0.0443267 0.0205 0.0005 
1240 1 0.0147543 0.0452419 0.02075 0.00075 
1297 1 0.0160002 0.0436041 0.02075 0.00075 
1701 1 0.0141277 0.0438798 0.020802 0.00075 
1713 1 0.0116402 0.0429329 0.0213244 0.0005 
1766 1 0.0153005 0.0491043 0.02132 0.00075 
1777 1 0.00953018 0.0451919 0.0216776 0.00075 
1486 1 0.0110185 0.0440309 0.0213794 0.00075 
1807 1 0.0116044 0.0448674 0.0205 0.0005 
1481 1 0.0148221 0.0443392 0.022369 0.001 
985 1 0.0155908 0.0461407 0.0205 0.0005 
1864 1 0.0142435 0.0463831 0.0221501 0.00075 
1188 1 0.0156647 0.0467432 0.0214171 0.0005 
1319 1 0.0157583 0.0471346 0.0205 0.0005 
1889 1 0.0122768 0.0443682 0.0216118 0.0005 
1652 1 0.0156883 0.0457195 0.0221937 0.0005 
1511 1 0.0126091 0.044928 0.0223881 0.0005 
969 1 0.0161641 0.0486494 0.0205 0.0005 
1023 1 0.0199192 0.042525 0.0205 0.0005 
1133 1 0.0174431 0.0447129 0.02075 0.00075 
499 1 0.0182549 0.0490725 0.0212514 0.00125 
804 1 0.0234982 0.0433131 0.0205 0.0005 
970 1 0.0231593 0.0473324 0.02075 0.00075 
859 1 0.0203599 0.0491965 0.02075 0.00075 
1097 1 0.0169802 0.0461477 0.02075 0.00075 
1155 1 0.0190173 0.0470279 0.0205 0.0005 
1271 1 0.0222282 0.0433794 0.0205 0.0005 
1289 1 0.0180512 0.0473185 0.0205 0.0005 
1334 1 0.0171943 0.0431555 0.0205 0.0005 
917 1 0.02315 0.048833 0.02075 0.00075 
963 1 0.0200059 0.0468594 0.0205 0.0005 
1299 1 0.0185264 0.0457779 0.02075 0.00075 
1411 1 0.0180693 0.0471439 0.0217477 0.00075 
1426 1 0.0168712 0.0476467 0.02075 0.00075 
847 1 0.0232015 0.0461352 0.0216533 0.00075 
1494 1 0.0166763 0.0474223 0.0222629 0.00075 
1088 1 0.0196953 0.0467802 0.0222843 0.001 
927 1 0.0188932 0.0437008 0.0217048 0.00125 
1430 1 0.0167582 0.044087 0.021664 0.0005 
1548 1 0.0169661 0.0453558 0.0217793 0.0005 
1855 1 0.0220387 0.0439454 0.0223275 0.00125 
1546 1 0.0173064 0.0428329 0.021761 0.0005 
1444 1 0.0176576 0.0459721 0.0221673 0.0005 
1242 1 0.00436305 0.0497808 0.0205 0.0005 
1596 1 0.000500173 0.0504314 0.0215814 0.0005 
423 1 0.00175331 0.0511121 0.021 0.001 
347 1 0.00534689 0.0509023 0.02075 0.00075 
1251 1 0.00315949 0.0509619 0.0205 0.0005 
855 1 0.00414429 0.0511353 0.0205 0.0005 
495 1 0.00639219 0.0518914 0.022272 0.00075 
712 1 0.00641044 0.0522219 0.02075 0.00075 
543 1 0.00128241 0.0533847 0.0212499 0.00125 
402 1 0.00421594 0.0530055 0.0217499 0.00175 
3 1 0.00250382 0.0547025 0.0205 0.0005 
740 1 0.00050028 0.0545665 0.0222765 0.0005 
354 1 0.00349489 0.0548369 0.0205 0.0005 
424 1 0.00756642 0.0531768 0.0207499 0.00075 
265 1 0.0066034 0.054329 0.02075 0.00075 
145 1 0.00150007 0.0561148 0.0214999 0.0015 
704 1 0.00322732 0.055943 0.0204999 0.0005 
788 1 0.00559853 0.0554452 0.02075 0.00075 
1382 1 0.00437815 0.0553185 0.0205 0.0005 
1453 1 0.00405231 0.0567664 0.0205024 0.0005 
674 1 0.00646563 0.0532848 0.0214352 0.0005 
977 1 0.00502475 0.0565289 0.0205 0.0005 
1547 1 0.00728919 0.0526587 0.0218563 0.0005 
603 1 0.00403546 0.0560077 0.0214988 0.00075 
1174 1 0.000765628 0.0517478 0.0223126 0.00075 
1402 1 0.00692954 0.0555319 0.0216155 0.0005 
1658 1 0.00645906 0.0541402 0.0223669 0.00075 
1306 1 0.0119595 0.050861 0.02075 0.00075 
1565 1 0.014118 0.0503984 0.0214255 0.001 
335 1 0.0115849 0.0520368 0.0205 0.0005 
405 1 0.0134929 0.0514266 0.0205078 0.0005 
367 1 0.00924038 0.0514757 0.0217499 0.00175 
1201 1 0.0127512 0.0524217 0.0207499 0.00075 
371 1 0.0126557 0.0543902 0.0205 0.0005 
496 1 0.0089114 0.0538432 0.0207517 0.00075 
1151 1 0.0142347 0.0521027 0.0205 0.0005 
792 1 0.0140326 0.0552602 0.0212521 0.00125 
1089 1 0.0122232 0.0553029 0.0204999 0.0005 
278 1 0.00943551 0.0554581 0.0205 0.0005 
467 1 0.0151566 0.053327 0.0209997 0.001 
1478 1 0.0119038 0.0556924 0.0219218 0.001 
1477 1 0.0157821 0.0514267 0.0210001 0.001 
1638 1 0.0110603 0.0529063 0.0205 0.0005 
1656 1 0.0101918 0.0547023 0.0215984 0.001 
11 1 0.0101663 0.0564711 0.02075 0.00075 
1706 1 0.00890589 0.0563511 0.0205074 0.0005 
1630 1 0.01515 0.0542402 0.0221901 0.0005 
1162 1 0.0129405 0.0536243 0.021634 0.00075 
1538 1 0.0159211 0.0548798 0.0222535 0.0005 
649 1 0.0149808 0.0565329 0.0205 0.0005 
1332 1 0.0131177 0.0515401 0.0216356 0.0005 
1550 1 0.00875338 0.0559285 0.0214877 0.0005 
1824 1 0.00803624 0.0553388 0.0205 0.0005 
1169 1 0.0154558 0.0565761 0.0219469 0.0005 
1518 1 0.0141819 0.0532709 0.0224761 0.00075 
1834 1 0.00839749 0.0537439 0.0224163 0.0005 
935 1 0.0210392 0.0503792 0.0205013 0.0005 
485 1 0.0232496 0.0503304 0.02075 0.00075 
1384 1 0.0164772 0.0498398 0.02075 0.00075 
1363 1 0.0174842 0.0505369 0.0205 0.0005 
410 1 0.0190581 0.0506144 0.0205 0.0005 
168 1 0.021878 0.0519496 0.0214995 0.0015 
133 1 0.0182579 0.0512163 0.0205 0.0005 
769 1 0.0201393 0.0519664 0.0205 0.0005 
976 1 0.0161893 0.0542935 0.0205 0.0005 
776 1 0.0175717 0.0519432 0.0204999 0.0005 
702 1 0.0214475 0.0537091 0.0205 0.0005 
415 1 0.0234898 0.0538137 0.0205 0.0005 
431 1 0.0162283 0.055707 0.0209998 0.001 
573 1 0.0193046 0.0534912 0.0214998 0.0015 
73 1 0.0210536 0.0557705 0.0209999 0.001 
470 1 0.0198149 0.056455 0.0205005 0.0005 
785 1 0.0174059 0.0544371 0.0207499 0.00075 
661 1 0.0186556 0.0558967 0.0212739 0.001 
1102 1 0.0234704 0.0528086 0.0205 0.0005 
1005 1 0.0228775 0.0556677 0.0205 0.0005 