ITEM: TIMESTEP
440000
ITEM: NUMBER OF ATOMS
3306
ITEM: BOX BOUNDS mm mm mm
-2.4e-06 0.0240024
-7.8e-06 0.0780078
-3e-06 0.030003
ITEM: ATOMS id type x y z radius 
291 1 0.00330461 0.00236666 0.0214998 0.0015 
368 1 0.000501886 0.00181289 0.0205 0.0005 
784 1 0.00579095 0.00427814 0.02075 0.00075 
32 1 0.00550301 0.000500104 0.0205 0.0005 
241 1 0.00474515 0.00332842 0.0205 0.0005 
815 1 0.00258372 0.000500511 0.0205 0.0005 
448 1 0.00397335 0.00396838 0.0205 0.0005 
300 1 0.00050962 0.000499993 0.0205 0.0005 
442 1 0.000999858 0.00319565 0.0209997 0.001 
816 1 0.0063388 0.00539118 0.0205 0.0005 
710 1 0.00436238 0.000500001 0.0205 0.0005 
527 1 0.000500098 0.00551806 0.0204999 0.0005 
100 1 0.00498751 0.00360403 0.0214302 0.0005 
153 1 0.00494115 0.00179441 0.0205 0.0005 
722 1 0.00181035 0.006076 0.0205 0.0005 
864 1 0.00610961 0.00129538 0.0205 0.0005 
503 1 0.00049991 0.00451835 0.0204999 0.0005 
561 1 0.00579578 0.0027011 0.0207547 0.00075 
501 1 0.00629189 0.000530092 0.0211208 0.0005 
954 1 0.00707592 0.000504645 0.0205 0.0005 
587 1 0.00050113 0.000841351 0.0214398 0.0005 
370 1 0.00716735 0.00209407 0.02075 0.00075 
28 1 0.00154631 0.00117322 0.02075 0.00075 
220 1 0.00784619 0.000749829 0.0216206 0.00075 
2736 1 0.00198645 0.00425426 0.0205 0.0005 
998 1 0.000764416 0.00671215 0.0207571 0.00075 
842 1 0.00664556 0.00654182 0.0223269 0.0005 
2924 1 0.00149707 0.00512635 0.0205 0.0005 
390 1 0.00219359 0.00409507 0.0214652 0.0005 
151 1 0.00152922 0.000750609 0.0221891 0.00075 
486 1 0.00393336 0.00609495 0.0222497 0.00225 
2921 1 0.000504287 0.00183945 0.0215012 0.0005 
1816 1 0.00049999 0.00609362 0.0218109 0.0005 
2929 1 0.00109071 0.00500038 0.0216753 0.00075 
463 1 0.00582104 0.00388025 0.0219345 0.0005 
1429 1 0.00125443 0.00669227 0.0220799 0.0005 
175 1 0.00495455 0.000568483 0.0213333 0.0005 
399 1 0.00189011 0.00402914 0.0224158 0.0005 
997 1 0.00473403 0.00346092 0.0223869 0.0005 
3005 1 0.00401154 0.000501403 0.0216593 0.0005 
307 1 0.00827197 0.00262257 0.0204999 0.0005 
870 1 0.00815471 0.00691445 0.0205 0.0005 
324 1 0.00822442 0.00463158 0.0219997 0.002 
1195 1 0.008343 0.0017333 0.0209753 0.0005 
121 1 0.00907892 0.00653254 0.0205 0.0005 
228 1 0.00984986 0.00589469 0.0205 0.0005 
490 1 0.0102007 0.0049417 0.0205 0.0005 
199 1 0.0117571 0.00378206 0.0205 0.0005 
395 1 0.0106444 0.00295057 0.0205 0.0005 
474 1 0.0139814 0.00201873 0.0207498 0.00075 
282 1 0.0105217 0.00182742 0.0205 0.0005 
590 1 0.00986705 0.000499942 0.0204999 0.0005 
176 1 0.0137144 0.000501167 0.0205 0.0005 
289 1 0.0115059 0.000503499 0.0205 0.0005 
362 1 0.00833864 0.000499881 0.0204996 0.0005 
783 1 0.0111479 0.00457544 0.0204997 0.0005 
51 1 0.0134388 0.00314275 0.0205 0.0005 
233 1 0.00949314 0.00253192 0.02075 0.00075 
217 1 0.0110781 0.00557269 0.0204998 0.0005 
549 1 0.0105306 0.00540855 0.0213204 0.0005 
126 1 0.0127672 0.00518942 0.0214997 0.0015 
676 1 0.0106718 0.000795017 0.0214095 0.00075 
209 1 0.0140426 0.00636142 0.0204999 0.0005 
730 1 0.00910865 0.00129986 0.0205 0.0005 
311 1 0.0145285 0.0069531 0.0217898 0.001 
763 1 0.010004 0.00371864 0.0204999 0.0005 
66 1 0.0144967 0.00509084 0.0205 0.0005 
61 1 0.0149647 0.00597456 0.0205 0.0005 
108 1 0.0150727 0.00361829 0.0212499 0.00125 
89 1 0.00910272 0.00049989 0.0211445 0.0005 
155 1 0.0120565 0.00222918 0.0212498 0.00125 
178 1 0.0149559 0.000749957 0.0207499 0.00075 
364 1 0.0108347 0.00380222 0.02143 0.00075 
895 1 0.0118855 0.000500004 0.0214577 0.0005 
598 1 0.0127144 0.0005 0.0205 0.0005 
1065 1 0.00931434 0.00132785 0.022377 0.001 
3288 1 0.0147968 0.005329 0.0215043 0.0005 
161 1 0.02325 0.000749976 0.0207499 0.00075 
159 1 0.022996 0.00344958 0.0205 0.0005 
204 1 0.0235 0.0058547 0.0205 0.0005 
219 1 0.0215361 0.000999936 0.0209998 0.001 
333 1 0.02325 0.00464952 0.0207502 0.00075 
142 1 0.02325 0.00225003 0.02075 0.00075 
200 1 0.0200779 0.00323193 0.02075 0.00075 
340 1 0.0215232 0.00471339 0.0207513 0.00075 
518 1 0.0197511 0.000749913 0.0207499 0.00075 
185 1 0.0165153 0.00566001 0.0212498 0.00125 
31 1 0.016933 0.00151933 0.0214998 0.0015 
123 1 0.0229219 0.00106134 0.0224403 0.001 
273 1 0.02175 0.00301898 0.0212202 0.001 
113 1 0.0171455 0.00340563 0.0205 0.0005 
544 1 0.0188755 0.00447856 0.0209999 0.001 
577 1 0.0232496 0.00648832 0.0215479 0.00075 
652 1 0.0182478 0.00576021 0.0214991 0.0005 
290 1 0.0186543 0.00275938 0.02075 0.00075 
281 1 0.0205065 0.00425938 0.0217562 0.00075 
57 1 0.0202816 0.0064848 0.0214996 0.0015 
143 1 0.0222829 0.00645739 0.0204999 0.0005 
853 1 0.0182139 0.00573606 0.0205 0.0005 
106 1 0.022448 0.00558503 0.0209599 0.0005 
1012 1 0.0181139 0.00694763 0.021886 0.00075 
109 1 0.0185664 0.00675145 0.0205 0.0005 
400 1 0.0214397 0.00049999 0.0224107 0.0005 
64 1 0.00677573 0.00722844 0.0209998 0.001 
1778 1 0.00161536 0.00734849 0.0214173 0.0005 
380 1 0.0054149 0.00761346 0.0205 0.0005 
256 1 0.00153916 0.00908635 0.0205 0.0005 
75 1 0.0023228 0.00813367 0.0207499 0.00075 
887 1 0.00708927 0.00804658 0.0222173 0.0005 
1359 1 0.00367356 0.00862205 0.0205 0.0005 
588 1 0.00454389 0.00812673 0.0205 0.0005 
360 1 0.00685904 0.0131824 0.0205 0.0005 
154 1 0.00530745 0.00981862 0.0207499 0.00075 
13 1 0.000500206 0.00962109 0.0205 0.0005 
879 1 0.00550289 0.00860957 0.0205 0.0005 
137 1 0.000952878 0.0105128 0.0205 0.0005 
44 1 0.00526632 0.0113181 0.0207499 0.00075 
1166 1 0.00588073 0.00859118 0.0216913 0.00075 
1234 1 0.00582486 0.00989294 0.0218853 0.0005 
323 1 0.00295457 0.0105004 0.0219997 0.002 
820 1 0.00121994 0.0115327 0.0204999 0.0005 
1067 1 0.00780398 0.013511 0.0205 0.0005 
713 1 0.00343188 0.0130206 0.0205 0.0005 
881 1 0.000500272 0.0122352 0.0205 0.0005 
943 1 0.00400913 0.0122034 0.0205 0.0005 
673 1 0.00507744 0.0128061 0.0207499 0.00075 
174 1 0.00162054 0.0130989 0.0209999 0.001 
447 1 0.00628207 0.0106341 0.0204999 0.0005 
737 1 0.00581519 0.0141461 0.0205 0.0005 
508 1 0.000500714 0.0139684 0.0205 0.0005 
872 1 0.00787891 0.0122484 0.0207499 0.00075 
891 1 0.00650286 0.0086161 0.0205 0.0005 
1190 1 0.0054332 0.010813 0.021898 0.0005 
911 1 0.00491678 0.0120296 0.0217161 0.0005 
35 1 0.00778751 0.00977793 0.0214998 0.0015 
2621 1 0.0063653 0.0120689 0.0205 0.0005 
1032 1 0.00628072 0.0110921 0.0214453 0.0005 
1085 1 0.000749813 0.0121346 0.022172 0.00075 
742 1 0.000499872 0.0111767 0.0210953 0.0005 
274 1 0.0079268 0.00805037 0.0205 0.0005 
427 1 0.00465626 0.00884091 0.0211908 0.0005 
1407 1 0.000750872 0.00820471 0.0209045 0.00075 
401 1 0.006509 0.012682 0.022141 0.00125 
1617 1 0.00163897 0.00838752 0.0217649 0.0005 
2240 1 0.0022429 0.0128724 0.0223457 0.0005 
1492 1 0.000500475 0.00735602 0.0218002 0.0005 
764 1 0.0108389 0.00713529 0.0212498 0.00125 
581 1 0.0126312 0.0073508 0.0221105 0.00075 
171 1 0.0132398 0.00751905 0.0207499 0.00075 
1070 1 0.00834326 0.00737476 0.0217641 0.00075 
636 1 0.0121332 0.00804353 0.0204999 0.0005 
275 1 0.0146716 0.00841871 0.02075 0.00075 
46 1 0.00916664 0.00811188 0.0207499 0.00075 
556 1 0.0138445 0.00967003 0.0207496 0.00075 
287 1 0.0106454 0.0114513 0.0205 0.0005 
865 1 0.0135647 0.0123727 0.0205 0.0005 
756 1 0.0117242 0.00972673 0.0214996 0.0015 
318 1 0.0136073 0.00853253 0.0218008 0.00075 
686 1 0.00950588 0.00930063 0.0205 0.0005 
10 1 0.0157455 0.00913428 0.0205 0.0005 
569 1 0.0123157 0.0113555 0.0205001 0.0005 
252 1 0.00903609 0.0117738 0.0205 0.0005 
188 1 0.0148851 0.0135205 0.0214998 0.0015 
772 1 0.0125637 0.0123958 0.0205 0.0005 
709 1 0.00972345 0.0106452 0.02075 0.00075 
1061 1 0.011327 0.0121829 0.0205 0.0005 
1118 1 0.00913277 0.0113359 0.021631 0.0005 
59 1 0.011806 0.0130606 0.0205 0.0005 
734 1 0.0127784 0.0138013 0.0207613 0.00075 
968 1 0.0119886 0.0119834 0.0215415 0.00075 
62 1 0.00992486 0.0137424 0.0219994 0.002 
1238 1 0.0102786 0.00862666 0.0205 0.0005 
1028 1 0.0135305 0.0111368 0.0207499 0.00075 
1653 1 0.0145392 0.00990639 0.021761 0.0005 
80 1 0.0153868 0.0108818 0.0209999 0.001 
810 1 0.009745 0.00861293 0.02204 0.00075 
1080 1 0.0134054 0.0119103 0.0220289 0.00075 
192 1 0.0158361 0.00747328 0.0207497 0.00075 
1883 1 0.0150404 0.0108984 0.0224592 0.0005 
1056 1 0.0158969 0.0118739 0.0220146 0.0005 
938 1 0.00975713 0.00984667 0.0218394 0.0005 
1257 1 0.00811667 0.0120162 0.0219549 0.0005 
1225 1 0.010993 0.0114849 0.0221111 0.0005 
714 1 0.0159695 0.01217 0.0204998 0.0005 
452 1 0.0235 0.00712187 0.0204999 0.0005 
1922 1 0.0165714 0.00853318 0.0205 0.0005 
6 1 0.0223008 0.00787138 0.021 0.001 
190 1 0.0174543 0.00767135 0.0207499 0.00075 
1846 1 0.0166639 0.00952985 0.0205 0.0005 
342 1 0.016933 0.0129256 0.0207499 0.00075 
319 1 0.0209027 0.00810184 0.0205 0.0005 
293 1 0.0187987 0.0115957 0.0217498 0.00175 
735 1 0.0207295 0.0104532 0.0215788 0.0005 
308 1 0.0200521 0.00924641 0.0209999 0.001 
49 1 0.0172098 0.0103677 0.0205 0.0005 
146 1 0.0194138 0.00798396 0.0205 0.0005 
578 1 0.0230001 0.00974499 0.0209998 0.001 
90 1 0.0186685 0.00827824 0.0214593 0.00075 
71 1 0.0214984 0.00908423 0.0205 0.0005 
659 1 0.0180107 0.00944106 0.02075 0.00075 
967 1 0.0169432 0.0113315 0.0205 0.0005 
130 1 0.0203483 0.0126459 0.0205 0.0005 
41 1 0.0216081 0.0107756 0.02075 0.00075 
231 1 0.0234999 0.0110684 0.0205 0.0005 
279 1 0.0235 0.00849125 0.0216541 0.0005 
693 1 0.0210362 0.00832964 0.021664 0.0005 
725 1 0.0225978 0.0119025 0.0207498 0.00075 
697 1 0.0203937 0.0106185 0.0204998 0.0005 
330 1 0.0223259 0.0133775 0.0207497 0.00075 
800 1 0.0206667 0.0116979 0.0205 0.0005 
538 1 0.0235001 0.0127306 0.0205 0.0005 
1236 1 0.0176835 0.0138075 0.022329 0.0005 
812 1 0.0213416 0.0125127 0.0205053 0.0005 
944 1 0.0235 0.0140063 0.021461 0.0005 
794 1 0.0168603 0.0135937 0.0218036 0.0005 
592 1 0.0179944 0.0135365 0.0204999 0.0005 
910 1 0.02152 0.00953222 0.0219088 0.00075 
956 1 0.018991 0.0134565 0.0204999 0.0005 
1899 1 0.0165697 0.0118404 0.0212755 0.0005 
1138 1 0.0224993 0.011087 0.0220046 0.00075 
272 1 0.0235 0.0137305 0.0204999 0.0005 
770 1 0.0235001 0.0117128 0.0215937 0.0005 
1517 1 0.0212191 0.0118256 0.0213237 0.0005 
1498 1 0.0180809 0.0139688 0.021398 0.0005 
1575 1 0.0218449 0.00840018 0.0223275 0.0005 
2494 1 0.0186745 0.0137976 0.0221965 0.0005 
479 1 0.0005 0.0143012 0.0214431 0.0005 
296 1 0.00385615 0.0150993 0.0222498 0.00225 
646 1 0.00150805 0.0145328 0.0205 0.0005 
521 1 0.00118072 0.0150794 0.0212728 0.0005 
439 1 0.00720073 0.0153479 0.0212498 0.00125 
196 1 0.000511428 0.0149683 0.0205 0.0005 
782 1 0.000501815 0.0157839 0.021495 0.0005 
70 1 0.000500079 0.0159689 0.0205 0.0005 
888 1 0.00380972 0.0172273 0.0205 0.0005 
550 1 0.00283279 0.017535 0.0205 0.0005 
529 1 0.00126545 0.0173495 0.0212569 0.00125 
269 1 0.00764655 0.0187519 0.0213146 0.00125 
19 1 0.00484807 0.018427 0.0212499 0.00125 
1077 1 0.00638167 0.0178583 0.0204999 0.0005 
1004 1 0.00646341 0.0204053 0.0207514 0.00075 
688 1 0.000731692 0.0206394 0.0205 0.0005 
1660 1 0.00532881 0.0199404 0.0205 0.0005 
972 1 0.00586361 0.0167486 0.0207499 0.00075 
576 1 0.000813455 0.0192943 0.0207902 0.00075 
1094 1 0.00681751 0.0203405 0.0222076 0.00075 
430 1 0.0021309 0.0186779 0.0205087 0.0005 
1829 1 0.00644261 0.0175063 0.0215622 0.0005 
1696 1 0.00612961 0.0166489 0.0219706 0.0005 
1613 1 0.00323745 0.0177574 0.0216791 0.0005 
1859 1 0.00777636 0.020297 0.0205 0.0005 
436 1 0.00714104 0.017157 0.0205847 0.0005 
695 1 0.00776853 0.016982 0.0222532 0.00075 
3191 1 0.00207446 0.0204592 0.0205 0.0005 
896 1 0.00736884 0.0212291 0.0204997 0.0005 
3293 1 0.00274811 0.0186434 0.0213157 0.0005 
974 1 0.0117761 0.014501 0.0205 0.0005 
1 1 0.00838764 0.0169559 0.02075 0.00075 
624 1 0.0126367 0.0148923 0.021402 0.0005 
611 1 0.00919955 0.0156118 0.0205 0.0005 
110 1 0.0133136 0.0149011 0.0205 0.0005 
2226 1 0.0123919 0.015289 0.0205001 0.0005 
877 1 0.0102002 0.0187594 0.0205 0.0005 
1570 1 0.00878567 0.0198013 0.0205 0.0005 
54 1 0.00940733 0.0175901 0.0221702 0.001 
118 1 0.0142246 0.0161894 0.0212584 0.00125 
717 1 0.0110889 0.0182934 0.0205 0.0005 
1232 1 0.0113955 0.0154398 0.0204999 0.0005 
934 1 0.0121811 0.019066 0.0207499 0.00075 
1310 1 0.0127302 0.0166922 0.0204998 0.0005 
1212 1 0.0147356 0.0186192 0.0205 0.0005 
1035 1 0.0109388 0.0172269 0.0205001 0.0005 
1592 1 0.0109849 0.0193798 0.0205 0.0005 
1697 1 0.00978579 0.0198018 0.0205113 0.0005 
2033 1 0.0122616 0.0198014 0.0218047 0.0005 
1264 1 0.0106325 0.0203351 0.0205 0.0005 
1164 1 0.0120313 0.0206093 0.02075 0.00075 
982 1 0.0140058 0.0203152 0.0204999 0.0005 
1448 1 0.0118491 0.0176427 0.0205 0.0005 
2386 1 0.0130259 0.0178365 0.0209061 0.00075 
2420 1 0.0130706 0.0199609 0.0205 0.0005 
2431 1 0.014206 0.0177666 0.0205 0.0005 
2287 1 0.0134013 0.0189574 0.0204999 0.0005 
2500 1 0.0142245 0.0194043 0.0208497 0.0005 
2378 1 0.0133571 0.0194922 0.0213436 0.0005 
2447 1 0.0129685 0.0186614 0.0221929 0.00075 
2086 1 0.0124813 0.0159775 0.0212199 0.0005 
1311 1 0.0151202 0.0196865 0.0205 0.0005 
2645 1 0.0147493 0.0178577 0.0213347 0.0005 
1376 1 0.00919933 0.0187822 0.0205 0.0005 
2392 1 0.011113 0.017741 0.021341 0.0005 
1757 1 0.0143466 0.0203512 0.0214756 0.0005 
2594 1 0.0131026 0.0204588 0.0213761 0.0005 
2618 1 0.0146555 0.0175369 0.0223335 0.0005 
2897 1 0.0093039 0.0177867 0.0205 0.0005 
1338 1 0.0153 0.0177938 0.0205 0.0005 
2978 1 0.00985759 0.0166512 0.0207499 0.00075 
2989 1 0.0111629 0.0187381 0.0213964 0.0005 
2598 1 0.0149971 0.0191215 0.0221038 0.001 
2289 1 0.0119686 0.0181807 0.0216161 0.0005 
3051 1 0.0117824 0.0163742 0.0205002 0.0005 
3061 1 0.00886688 0.0159578 0.0213772 0.0005 
3029 1 0.0113393 0.0197629 0.0213566 0.0005 
3080 1 0.0113119 0.0167617 0.0213056 0.0005 
2473 1 0.0137802 0.0177558 0.0218995 0.0005 
43 1 0.0154773 0.0151481 0.0205 0.0005 
3118 1 0.0107959 0.0159217 0.0211387 0.0005 
748 1 0.00886484 0.0160413 0.0224379 0.0005 
2294 1 0.0122915 0.0169457 0.0213854 0.0005 
3001 1 0.0114938 0.0205886 0.0218993 0.0005 
3168 1 0.0126064 0.0162265 0.0222933 0.0005 
3174 1 0.0102198 0.0178441 0.0209023 0.0005 
3188 1 0.010789 0.0169847 0.0221295 0.0005 
3010 1 0.010551 0.0209135 0.0217716 0.0005 
3215 1 0.0116164 0.0163702 0.0222072 0.0005 
3149 1 0.0100389 0.016245 0.0219242 0.0005 
1247 1 0.00999611 0.0194906 0.0219665 0.001 
2060 1 0.00858356 0.0199432 0.0221894 0.0005 
2511 1 0.0158899 0.0169864 0.0204999 0.0005 
2460 1 0.0158321 0.0189841 0.0205 0.0005 
1577 1 0.0132528 0.020976 0.0205 0.0005 
1772 1 0.0111311 0.0180704 0.0222983 0.0005 
2681 1 0.0148247 0.021144 0.0219788 0.0005 
941 1 0.0119578 0.0152685 0.0221281 0.0005 
1775 1 0.0137677 0.0211776 0.0215781 0.0005 
523 1 0.0185616 0.0143599 0.0205 0.0005 
639 1 0.0224537 0.014454 0.0214246 0.0005 
350 1 0.0204565 0.0143796 0.0214997 0.0015 
78 1 0.0228323 0.0144925 0.0204999 0.0005 
2117 1 0.016114 0.0160261 0.0214941 0.0005 
189 1 0.0160108 0.0159938 0.0205 0.0005 
139 1 0.0169374 0.0148577 0.0209999 0.001 
1193 1 0.0185213 0.0148668 0.0213611 0.0005 
345 1 0.0189718 0.0152718 0.0204999 0.0005 
741 1 0.018026 0.0157624 0.0214967 0.0005 
450 1 0.0180703 0.0157042 0.0204997 0.0005 
947 1 0.0172512 0.0179598 0.0205 0.0005 
591 1 0.0222263 0.0155568 0.02075 0.00075 
465 1 0.0181337 0.0172147 0.0205 0.0005 
719 1 0.0189725 0.0164238 0.0209849 0.00075 
628 1 0.0235001 0.0167792 0.0205 0.0005 
42 1 0.0223068 0.0170545 0.0207498 0.00075 
747 1 0.0210831 0.015996 0.0205 0.0005 
813 1 0.0199422 0.0170849 0.0205 0.0005 
787 1 0.0182872 0.0182035 0.0205 0.0005 
492 1 0.0190676 0.0175719 0.0205 0.0005 
238 1 0.0235 0.0177798 0.0204999 0.0005 
1216 1 0.0195076 0.0176488 0.0216675 0.00075 
1230 1 0.0170843 0.0165834 0.02075 0.00075 
566 1 0.0205954 0.0181212 0.0207495 0.00075 
1333 1 0.0210804 0.016996 0.0205 0.0005 
1091 1 0.0193138 0.018541 0.0204999 0.0005 
1398 1 0.0211049 0.0202404 0.0205 0.0005 
1189 1 0.0235001 0.0149626 0.0210768 0.0005 
1427 1 0.0200692 0.0160679 0.0204999 0.0005 
898 1 0.0183593 0.0181112 0.021493 0.0005 
1452 1 0.0200511 0.0195189 0.0207499 0.00075 
1488 1 0.0180136 0.0193976 0.02075 0.00075 
1124 1 0.0235001 0.0157792 0.0204998 0.0005 
1020 1 0.0224665 0.0191697 0.0214998 0.0015 
1401 1 0.0214169 0.0165844 0.0221812 0.001 
1298 1 0.0201722 0.0165971 0.0213421 0.0005 
1170 1 0.0232328 0.0162418 0.0216297 0.00075 
1831 1 0.0173158 0.0185417 0.0213358 0.0005 
957 1 0.0234978 0.0212132 0.0205 0.0005 
1320 1 0.0188724 0.0206373 0.0207499 0.00075 
1598 1 0.0198694 0.0204984 0.0215092 0.0005 
1437 1 0.0235 0.0208812 0.0214433 0.0005 
1184 1 0.0235 0.0174485 0.0214435 0.0005 
1692 1 0.0190809 0.0188011 0.0214369 0.0005 
1828 1 0.0175286 0.0175657 0.0213825 0.0005 
1202 1 0.0206218 0.0198808 0.0218014 0.0005 
1460 1 0.0208131 0.0207582 0.0213042 0.0005 
1984 1 0.0191773 0.0197815 0.0216082 0.0005 
1738 1 0.0168964 0.0188958 0.0204999 0.0005 
1648 1 0.0164784 0.0205838 0.0212499 0.00125 
2467 1 0.0162584 0.0180794 0.0205 0.0005 
1963 1 0.0190004 0.0207058 0.0219914 0.0005 
1434 1 0.0232501 0.0148986 0.0222998 0.00075 
1796 1 0.019789 0.0193387 0.0222635 0.0005 
1105 1 0.0201863 0.020738 0.0205 0.0005 
1865 1 0.016357 0.0188405 0.0213401 0.0005 
1767 1 0.0208055 0.0179368 0.0219671 0.0005 
1929 1 0.0205048 0.0188666 0.0217487 0.0005 
2072 1 0.0235004 0.017719 0.0224085 0.0005 
2099 1 0.019773 0.0164007 0.0222376 0.0005 
838 1 0.0161106 0.0174718 0.0219018 0.001 
2396 1 0.0171062 0.0158318 0.022128 0.0005 
2547 1 0.0190998 0.0156615 0.022218 0.0005 
1941 1 0.0179804 0.0150104 0.0224938 0.00075 
223 1 0.00432824 0.021359 0.0220388 0.00175 
678 1 0.00152963 0.0216449 0.0213401 0.001 
700 1 0.00638474 0.0219576 0.0207499 0.00075 
1293 1 0.00269334 0.0220822 0.0205001 0.0005 
1416 1 0.0034359 0.0228371 0.0205 0.0005 
1578 1 0.00545941 0.0228065 0.020654 0.0005 
482 1 0.000607058 0.0225754 0.0205 0.0005 
12 1 0.00227736 0.0232344 0.0207499 0.00075 
952 1 0.00578804 0.0254726 0.0205 0.0005 
1439 1 0.00674125 0.0246653 0.0207498 0.00075 
831 1 0.00505717 0.0242613 0.0209999 0.001 
534 1 0.000865923 0.0237786 0.0207499 0.00075 
1423 1 0.00117322 0.0268469 0.021217 0.0005 
1406 1 0.000646197 0.0263723 0.0204999 0.0005 
483 1 0.000500003 0.0273615 0.0205002 0.0005 
1483 1 0.00759545 0.0222042 0.0205 0.0005 
1512 1 0.00319979 0.0261662 0.0205001 0.0005 
752 1 0.00584845 0.02692 0.0204999 0.0005 
1805 1 0.0034672 0.02497 0.02075 0.00075 
1576 1 0.0005 0.0249472 0.0205 0.0005 
1373 1 0.00680994 0.0261635 0.0207562 0.00075 
1860 1 0.00442293 0.0229975 0.0204999 0.0005 
1625 1 0.000499997 0.0228183 0.0214641 0.0005 
1455 1 0.00181023 0.0254795 0.0209999 0.001 
1942 1 0.00711755 0.0232384 0.0210176 0.00075 
1926 1 0.000499936 0.0246749 0.0215404 0.0005 
1520 1 0.00659548 0.027405 0.0209545 0.0005 
1143 1 0.00312336 0.0275936 0.0209221 0.00075 
2021 1 0.00773799 0.0269602 0.0204998 0.0005 
980 1 0.0052673 0.0277337 0.0205 0.0005 
1825 1 0.000499958 0.0261461 0.0214629 0.0005 
2481 1 0.00734823 0.027881 0.0205 0.0005 
2583 1 0.00452724 0.0255854 0.0205 0.0005 
1893 1 0.000799136 0.0254424 0.0221072 0.0005 
2706 1 0.000500268 0.0268514 0.0221718 0.0005 
348 1 0.00222774 0.0268306 0.0205 0.0005 
775 1 0.00523459 0.0262672 0.022003 0.00125 
1662 1 0.0034791 0.0236859 0.0215254 0.00075 
2168 1 0.00698409 0.0272279 0.0221292 0.00075 
2244 1 0.00148962 0.0275053 0.0205 0.0005 
2852 1 0.00414263 0.0265085 0.0205 0.0005 
2884 1 0.00361334 0.0265222 0.0213483 0.0005 
2920 1 0.00596218 0.0278378 0.0217472 0.0005 
1474 1 0.00575607 0.0231525 0.0218154 0.0005 
1449 1 0.00207659 0.028315 0.0205004 0.0005 
2833 1 0.00424306 0.0277184 0.0214737 0.0005 
2427 1 0.00429591 0.0274967 0.0205 0.0005 
1991 1 0.00626167 0.024552 0.022236 0.00075 
2813 1 0.00148123 0.027765 0.0214656 0.0005 
1209 1 0.000499974 0.0275727 0.0214784 0.0005 
2922 1 0.00237504 0.0272623 0.0221803 0.00075 
1726 1 0.000517924 0.0221182 0.0223779 0.0005 
2991 1 0.00374202 0.0271433 0.0222709 0.0005 
2406 1 0.0051632 0.0279833 0.0223376 0.0005 
3065 1 0.00510971 0.0282097 0.0213653 0.0005 
2565 1 0.00818877 0.0238304 0.0206254 0.0005 
600 1 0.00894263 0.0213752 0.02125 0.00125 
1144 1 0.0103674 0.0223455 0.021589 0.0005 
1650 1 0.00836004 0.0228482 0.0204998 0.0005 
946 1 0.00816317 0.0251487 0.0220702 0.00125 
904 1 0.00875615 0.0246457 0.0205 0.0005 
1081 1 0.00853679 0.0261817 0.0205 0.0005 
1343 1 0.0108703 0.0215591 0.02075 0.00075 
1394 1 0.00960926 0.0235098 0.0210004 0.001 
1698 1 0.00961533 0.0255331 0.0207499 0.00075 
1342 1 0.0110665 0.0245588 0.0216791 0.00075 
978 1 0.0104988 0.0263833 0.0205 0.0005 
1208 1 0.0104572 0.0246406 0.0204998 0.0005 
1350 1 0.0132256 0.0235714 0.0205 0.0005 
919 1 0.00936803 0.0278775 0.0217499 0.00175 
780 1 0.0126428 0.0258486 0.0205 0.0005 
353 1 0.0142187 0.023453 0.0205 0.0005 
1294 1 0.0124669 0.0227659 0.0204999 0.0005 
1180 1 0.0120652 0.021848 0.0205 0.0005 
1462 1 0.0116445 0.0257521 0.0213317 0.0005 
1467 1 0.012239 0.0237494 0.0204999 0.0005 
1552 1 0.0126081 0.0216809 0.0216269 0.00075 
1602 1 0.0115647 0.0263026 0.0204997 0.0005 
1621 1 0.0127784 0.025408 0.0217296 0.00075 
861 1 0.0140567 0.0246674 0.0207499 0.00075 
1643 1 0.0119891 0.0250915 0.0205 0.0005 
1539 1 0.0128377 0.0245505 0.0204999 0.0005 
1330 1 0.0135252 0.0237686 0.0214369 0.0005 
1192 1 0.0145777 0.0259333 0.0205 0.0005 
1614 1 0.0112662 0.0230058 0.0207506 0.00075 
1693 1 0.0148372 0.0225505 0.0205 0.0005 
1618 1 0.0113931 0.0242886 0.0205 0.0005 
1221 1 0.0136266 0.0223859 0.0207704 0.00075 
1915 1 0.0135968 0.0261488 0.0205 0.0005 
1869 1 0.0110446 0.0254492 0.0205 0.0005 
2193 1 0.0111084 0.0271922 0.0204998 0.0005 
2263 1 0.0139232 0.0257492 0.0213616 0.0005 
2270 1 0.012671 0.0274311 0.0212501 0.00125 
1753 1 0.0147533 0.0237345 0.0212968 0.0005 
862 1 0.0146031 0.0273732 0.0205 0.0005 
2004 1 0.0142358 0.0266621 0.0210995 0.0005 
1958 1 0.0143648 0.0276644 0.0216217 0.0005 
2243 1 0.0156183 0.0266881 0.0207501 0.00075 
1017 1 0.0146915 0.0213299 0.0207499 0.00075 
2348 1 0.0140911 0.0230064 0.021751 0.0005 
1955 1 0.0148828 0.0259991 0.0214898 0.0005 
2603 1 0.0126385 0.0233238 0.0213118 0.0005 
2121 1 0.0106499 0.0258434 0.0213791 0.0005 
2261 1 0.0153268 0.0278604 0.0213592 0.0005 
2026 1 0.0112137 0.0265897 0.0217327 0.0005 
2662 1 0.0131458 0.0227584 0.0219621 0.0005 
2201 1 0.0122364 0.0243756 0.0212794 0.0005 
2010 1 0.0128023 0.0240881 0.022052 0.0005 
1931 1 0.0107561 0.0255756 0.0223366 0.0005 
2419 1 0.015003 0.0269272 0.0218417 0.0005 
1768 1 0.0158458 0.0279056 0.0205 0.0005 
2097 1 0.00984293 0.024691 0.0218966 0.0005 
2143 1 0.00822454 0.0234188 0.0215687 0.0005 
2411 1 0.00982907 0.0256873 0.0219786 0.0005 
1682 1 0.0113915 0.0215834 0.0218968 0.0005 
1655 1 0.0117536 0.0229814 0.0224734 0.001 
1989 1 0.0139876 0.0264771 0.0224144 0.00075 
2463 1 0.011451 0.027484 0.0225041 0.0005 
1288 1 0.0157382 0.0220071 0.0205 0.0005 
1563 1 0.0152854 0.0234451 0.0205 0.0005 
144 1 0.0157735 0.0248964 0.0209999 0.001 
1794 1 0.0154904 0.0224925 0.0219159 0.001 
1935 1 0.0112068 0.0282241 0.0205 0.0005 
2319 1 0.015321 0.0261272 0.0223797 0.0005 
2550 1 0.00900464 0.0236443 0.0223771 0.0005 
1837 1 0.015976 0.0268021 0.0220333 0.0005 
1881 1 0.0159465 0.0239069 0.0221197 0.0005 
1219 1 0.0220306 0.0215803 0.0209999 0.001 
152 1 0.0206047 0.0237593 0.0205 0.0005 
1292 1 0.0165112 0.0233297 0.0207501 0.00075 
512 1 0.0191457 0.0266534 0.0205 0.0005 
1048 1 0.0179644 0.0218312 0.02075 0.00075 
1415 1 0.0213678 0.0228296 0.0205 0.0005 
1087 1 0.0234882 0.0255441 0.0205 0.0005 
1176 1 0.0180491 0.025672 0.02075 0.00075 
1269 1 0.02325 0.0228104 0.02075 0.00075 
1507 1 0.0233319 0.0238962 0.0219112 0.0005 
1574 1 0.023498 0.026688 0.0205 0.0005 
1472 1 0.0229992 0.0243323 0.02075 0.00075 
1590 1 0.0220192 0.0251035 0.0205 0.0005 
1634 1 0.0180123 0.0233304 0.02075 0.00075 
908 1 0.0221821 0.02341 0.0205 0.0005 
1646 1 0.0167783 0.0221353 0.0204995 0.0005 
1927 1 0.0166604 0.0260448 0.0205 0.0005 
1897 1 0.0172243 0.0226575 0.0220861 0.00075 
1370 1 0.0226725 0.0276045 0.02075 0.00075 
1978 1 0.0171879 0.0247983 0.0205 0.0005 
1514 1 0.0198813 0.0222906 0.0212501 0.00125 
1925 1 0.0215159 0.0242307 0.0205017 0.0005 
1527 1 0.0172529 0.0241288 0.0217896 0.00075 
1106 1 0.0173811 0.0274899 0.0212498 0.00125 
1323 1 0.0189553 0.0276377 0.0205 0.0005 
1267 1 0.0204401 0.0270465 0.0211484 0.001 
1910 1 0.0191198 0.0275202 0.0218464 0.0005 
2162 1 0.0210737 0.0213592 0.0221337 0.0005 
2008 1 0.0185325 0.0282081 0.0223604 0.0005 
2303 1 0.017972 0.021377 0.0223177 0.00075 
3251 1 0.0193889 0.0237935 0.020502 0.0005 
1974 1 0.023471 0.0282955 0.0214336 0.0005 
1702 1 0.000499811 0.0284875 0.0219306 0.0005 
1285 1 0.000887232 0.0286201 0.0207498 0.00075 
2864 1 0.0033859 0.02837 0.0222143 0.00075 
2449 1 0.00724573 0.0285433 0.021385 0.0005 
1480 1 0.00616923 0.028562 0.0207499 0.00075 
1103 1 0.00490358 0.0286656 0.0204997 0.0005 
138 1 0.00765781 0.0288318 0.0205 0.0005 
162 1 0.000505105 0.0315169 0.0205 0.0005 
259 1 0.00375686 0.0317901 0.0204999 0.0005 
522 1 0.00169037 0.0336089 0.02075 0.00075 
337 1 0.00291764 0.029989 0.0207499 0.00075 
638 1 0.00530879 0.0331135 0.0207499 0.00075 
506 1 0.000500437 0.0339566 0.0209169 0.0005 
1084 1 0.00150761 0.0305004 0.02075 0.00075 
1355 1 0.0031386 0.0332099 0.0205 0.0005 
1451 1 0.00392643 0.0284534 0.0205 0.0005 
412 1 0.00236031 0.0320115 0.021 0.001 
1607 1 0.00188266 0.029334 0.0205 0.0005 
1290 1 0.000501985 0.0297928 0.0205 0.0005 
1761 1 0.00663193 0.0343519 0.0204997 0.0005 
1760 1 0.00411938 0.0334051 0.0204998 0.0005 
1611 1 0.00522133 0.0343351 0.0205 0.0005 
2278 1 0.00297052 0.0287654 0.0205 0.0005 
2306 1 0.00505043 0.031636 0.0207499 0.00075 
2343 1 0.00544468 0.0304719 0.0205 0.0005 
2387 1 0.00646497 0.0321364 0.0207499 0.00075 
2407 1 0.00404526 0.0308308 0.0205 0.0005 
2421 1 0.00650833 0.03336 0.0204998 0.0005 
672 1 0.00754895 0.0350599 0.020968 0.00075 
2537 1 0.00424034 0.0294348 0.0204999 0.0005 
1872 1 0.00704462 0.0302891 0.02125 0.00125 
1792 1 0.00403534 0.031171 0.0217592 0.00075 
2484 1 0.00538557 0.0307487 0.021564 0.0005 
2573 1 0.00519593 0.0295316 0.0213521 0.00075 
1993 1 0.00208668 0.0288454 0.021634 0.00075 
2455 1 0.00748312 0.0326997 0.0214758 0.0005 
2622 1 0.00643561 0.031773 0.0219495 0.0005 
1291 1 0.000864124 0.0326845 0.0216393 0.00075 
2548 1 0.00284764 0.0307842 0.0217118 0.0005 
2570 1 0.00570371 0.0324083 0.0217033 0.0005 
897 1 0.000500149 0.0330477 0.0204999 0.0005 
1168 1 0.00399241 0.0326447 0.0214837 0.00075 
1136 1 0.000750443 0.0312012 0.0218393 0.00075 
2381 1 0.00409339 0.0289427 0.0213577 0.0005 
2530 1 0.0040434 0.0300115 0.0212926 0.0005 
2154 1 0.000752019 0.0297026 0.0217793 0.00075 
535 1 0.00149355 0.0349835 0.0205001 0.0005 
2604 1 0.00644611 0.0339181 0.0221847 0.00125 
2371 1 0.00195033 0.030987 0.022123 0.0005 
2660 1 0.00480023 0.0303105 0.022246 0.0005 
2423 1 0.00611402 0.0289139 0.0223647 0.00075 
2337 1 0.00741675 0.0329071 0.0204999 0.0005 
2626 1 0.00517566 0.0316174 0.0220126 0.0005 
2456 1 0.00743338 0.0318341 0.021974 0.0005 
2628 1 0.00197031 0.0332882 0.0219443 0.0005 
2874 1 0.00768469 0.0353179 0.0222209 0.0005 
835 1 0.00752456 0.0339012 0.0204999 0.0005 
2718 1 0.00345554 0.0299295 0.0223925 0.00075 
1417 1 0.0009795 0.0341213 0.0220596 0.00075 
2759 1 0.00223418 0.0300394 0.0219742 0.0005 
2152 1 0.000500193 0.0348655 0.0205 0.0005 
2631 1 0.00481913 0.0289202 0.0223972 0.0005 
249 1 0.00346805 0.035294 0.0220022 0.002 
1529 1 0.00591515 0.0353445 0.0207498 0.00075 
2998 1 0.00729029 0.0283974 0.0224563 0.0005 
2493 1 0.00876651 0.035159 0.021232 0.0005 
2772 1 0.00814417 0.0296336 0.0224431 0.0005 
2393 1 0.0114863 0.0286361 0.0217577 0.0005 
1987 1 0.0147901 0.0285318 0.0218938 0.0005 
1870 1 0.0142862 0.0285562 0.0207499 0.00075 
2301 1 0.012693 0.0291972 0.022188 0.00075 
505 1 0.00841333 0.0294869 0.0205 0.0005 
886 1 0.00861552 0.0304666 0.0204998 0.0005 
1249 1 0.0129825 0.0325608 0.0207498 0.00075 
1154 1 0.0107759 0.0323082 0.0205 0.0005 
609 1 0.0117752 0.0323558 0.0204999 0.0005 
1134 1 0.00811672 0.0319023 0.0207499 0.00075 
1340 1 0.011267 0.0332169 0.0204999 0.0005 
1678 1 0.0122034 0.0335677 0.0205003 0.0005 
1703 1 0.0104364 0.031352 0.0205 0.0005 
1095 1 0.0131829 0.0337689 0.0204998 0.0005 
1815 1 0.00934471 0.0311507 0.0204999 0.0005 
1348 1 0.0130181 0.0300133 0.0205 0.0005 
2043 1 0.010713 0.0291777 0.0204999 0.0005 
1867 1 0.00847872 0.0333489 0.0210889 0.00075 
1793 1 0.0144682 0.0297401 0.0219862 0.00075 
2242 1 0.0119623 0.0309543 0.021 0.001 
2245 1 0.010003 0.0305741 0.0213923 0.00075 
2266 1 0.0131374 0.0289807 0.0205 0.0005 
1954 1 0.0107821 0.0301752 0.0204999 0.0005 
1762 1 0.00879862 0.0310292 0.0213287 0.0005 
640 1 0.00955211 0.0323575 0.02075 0.00075 
2323 1 0.0124734 0.0345322 0.0205 0.0005 
2362 1 0.014086 0.0297642 0.0204998 0.0005 
2347 1 0.0114802 0.0342583 0.0205 0.0005 
1361 1 0.0152791 0.0300445 0.02075 0.00075 
2202 1 0.0139555 0.0311432 0.0210748 0.001 
2451 1 0.0119368 0.0292227 0.0207499 0.00075 
1083 1 0.0147042 0.033422 0.0212918 0.00125 
2305 1 0.0154151 0.0309253 0.0217143 0.0005 
2225 1 0.00970786 0.0297366 0.0205 0.0005 
2408 1 0.0132607 0.0344211 0.0212535 0.0005 
2304 1 0.0101072 0.0339887 0.0210555 0.001 
2574 1 0.0134694 0.0295425 0.021258 0.0005 
698 1 0.0155813 0.031703 0.0207499 0.00075 
2404 1 0.0125339 0.0335524 0.0217817 0.00075 
2390 1 0.00893997 0.0319459 0.0217594 0.0005 
2252 1 0.0119725 0.0324424 0.0214764 0.0005 
2577 1 0.0111521 0.0330131 0.0215096 0.0005 
2505 1 0.0129881 0.030385 0.0219344 0.0005 
2439 1 0.0158035 0.0321916 0.0218788 0.0005 
2247 1 0.0116381 0.034665 0.0213997 0.0005 
1786 1 0.0154787 0.0288359 0.0205 0.0005 
2469 1 0.00877311 0.0344695 0.0205 0.0005 
2379 1 0.0124558 0.0310848 0.0224104 0.0005 
2612 1 0.00831056 0.0344147 0.0217197 0.0005 
2443 1 0.00883854 0.0300311 0.0213718 0.0005 
2502 1 0.0147749 0.031886 0.0221271 0.0005 
2887 1 0.0102438 0.0326636 0.0217451 0.0005 
2217 1 0.00938325 0.03492 0.021982 0.0005 
2357 1 0.0112248 0.0338838 0.0224341 0.00075 
2239 1 0.0121967 0.0346701 0.0224573 0.0005 
2349 1 0.0106699 0.0349421 0.0220675 0.0005 
1167 1 0.0142049 0.0349322 0.0205 0.0005 