ITEM: TIMESTEP
560000
ITEM: NUMBER OF ATOMS
2077
ITEM: BOX BOUNDS mm mm mm
-2.4e-06 0.0240024
-7.8e-06 0.0780078
-3e-06 0.030003
ITEM: ATOMS id type x y z radius 
1 1 0.00327696 0.00245996 0.0214999 0.0015 
2 1 0.000500047 0.00208998 0.0205 0.0005 
3 1 0.00531488 0.0050354 0.0207509 0.00075 
4 1 0.00471272 0.000501077 0.0205 0.0005 
5 1 0.00451734 0.00374581 0.0205 0.0005 
6 1 0.00278326 0.000500003 0.0205 0.0005 
7 1 0.00409651 0.0047057 0.0205 0.0005 
8 1 0.000500075 0.000515086 0.0205 0.0005 
9 1 0.000999982 0.00341286 0.0209999 0.001 
10 1 0.00630723 0.00632261 0.0205 0.0005 
11 1 0.0037402 0.00079053 0.0205 0.0005 
12 1 0.000501295 0.00581789 0.0205003 0.0005 
13 1 0.00528786 0.0038472 0.0212302 0.0005 
14 1 0.00484383 0.00158687 0.0205 0.0005 
15 1 0.0017003 0.00650918 0.0205 0.0005 
16 1 0.00588026 0.00155677 0.0205 0.0005 
17 1 0.000509849 0.00474715 0.0205 0.0005 
18 1 0.00539264 0.00268175 0.02075 0.00075 
19 1 0.00551758 0.00050011 0.0214317 0.0005 
20 1 0.00588076 0.000499994 0.0205 0.0005 
21 1 0.00080506 0.000499887 0.0214524 0.0005 
22 1 0.00684751 0.00231409 0.02075 0.00075 
23 1 0.00161114 0.00114696 0.0207498 0.00075 
24 1 0.00706457 0.000813936 0.02075 0.00075 
25 1 0.00323561 0.00419466 0.0205007 0.0005 
27 1 0.00278828 0.0052057 0.0205532 0.0005 
28 1 0.0022228 0.00417397 0.020553 0.0005 
29 1 0.00190844 0.000749989 0.0221654 0.00075 
31 1 0.000499973 0.00143082 0.0212519 0.0005 
32 1 0.000500141 0.00625799 0.0213997 0.0005 
33 1 0.00158523 0.00531571 0.0208741 0.00075 
34 1 0.00606698 0.0037409 0.0205 0.0005 
35 1 0.00128797 0.00686814 0.0217942 0.0005 
36 1 0.00469301 0.00105741 0.0213348 0.0005 
37 1 0.00211729 0.00412278 0.0217093 0.0005 
38 1 0.0037366 0.000500052 0.0214568 0.0005 
40 1 0.000499955 0.000510657 0.0224045 0.0005 
41 1 0.00717366 0.00349532 0.0205 0.0005 
42 1 0.00793712 0.00167339 0.0205 0.0005 
43 1 0.00689515 0.00458303 0.0205064 0.0005 
1724 1 0.00466895 0.00639269 0.0207931 0.00075 
1770 1 0.00273617 0.00620604 0.0205 0.0005 
1610 1 0.00501211 0.00529266 0.0220131 0.0005 
44 1 0.00774801 0.00647552 0.0205 0.0005 
1633 1 0.00752673 0.00388295 0.0213813 0.0005 
1665 1 0.00113155 0.0059225 0.0220994 0.0005 
1806 1 0.00789224 0.00519272 0.02095 0.00075 
1715 1 0.00434032 0.000803786 0.0222356 0.0005 
1926 1 0.00326303 0.00470438 0.0216571 0.00075 
99 1 0.00660263 0.00628771 0.0224384 0.0005 
1662 1 0.00653071 0.0048544 0.0220012 0.001 
1735 1 0.00534781 0.00221234 0.0219189 0.0005 
1762 1 0.00670153 0.00198039 0.0223056 0.00075 
45 1 0.00873322 0.00626495 0.0205 0.0005 
46 1 0.00905997 0.00527491 0.0205 0.0005 
47 1 0.011145 0.00430148 0.0205 0.0005 
48 1 0.00955888 0.0029022 0.0205 0.0005 
49 1 0.0136556 0.00252818 0.02075 0.00075 
50 1 0.00991638 0.00149057 0.0205 0.0005 
51 1 0.0101191 0.000499984 0.0205 0.0005 
52 1 0.012406 0.000550916 0.0205 0.0005 
53 1 0.0110732 0.000799475 0.0205 0.0005 
54 1 0.00824837 0.000499989 0.0205 0.0005 
55 1 0.010542 0.00523305 0.0205 0.0005 
56 1 0.0122048 0.00400077 0.0205 0.0005 
57 1 0.00833469 0.00283231 0.02075 0.00075 
58 1 0.0106668 0.00639804 0.0205004 0.0005 
59 1 0.00974067 0.00601267 0.0205024 0.0005 
60 1 0.0122612 0.00572633 0.0215104 0.0015 
61 1 0.0104478 0.000819847 0.0216627 0.00075 
62 1 0.00891646 0.00147079 0.0205 0.0005 
63 1 0.00834302 0.00405723 0.0205 0.0005 
64 1 0.0141651 0.00598941 0.0205 0.0005 
66 1 0.0146552 0.00418671 0.0212499 0.00125 
67 1 0.00918373 0.000571552 0.0208463 0.0005 
68 1 0.0114904 0.0026478 0.0213495 0.00125 
69 1 0.0136135 0.000759566 0.02075 0.00075 
70 1 0.00967879 0.00421674 0.0207515 0.00075 
71 1 0.0117066 0.000499995 0.0212134 0.0005 
72 1 0.0127202 0.00173762 0.0205 0.0005 
1608 1 0.0155014 0.00593434 0.0207659 0.00075 
75 1 0.0157251 0.00150021 0.0214999 0.0015 
65 1 0.0137678 0.00693371 0.0205 0.0005 
2063 1 0.0126133 0.000730428 0.0223292 0.0005 
74 1 0.0171212 0.00421368 0.0205 0.0005 
76 1 0.0229277 0.000750139 0.02075 0.00075 
77 1 0.0234982 0.00524428 0.0205 0.0005 
78 1 0.0207306 0.00100293 0.0210001 0.001 
79 1 0.0232501 0.00332954 0.0207499 0.00075 
81 1 0.0202811 0.0030318 0.0207945 0.00075 
82 1 0.0197058 0.00414663 0.0205112 0.0005 
83 1 0.019205 0.00198701 0.0207987 0.00075 
84 1 0.0212665 0.00231218 0.0205002 0.0005 
85 1 0.0177905 0.000562115 0.0205 0.0005 
86 1 0.023499 0.0018426 0.0209599 0.0005 
87 1 0.0207491 0.00422182 0.0205016 0.0005 
88 1 0.019282 0.000695392 0.0207457 0.0005 
89 1 0.0223206 0.00220894 0.0211642 0.00075 
90 1 0.0215993 0.00575885 0.02075 0.00075 
91 1 0.0203935 0.00626768 0.0205 0.0005 
92 1 0.0221187 0.00361 0.0212008 0.0005 
93 1 0.0214327 0.00341768 0.0204997 0.0005 
94 1 0.0189164 0.00562349 0.0205 0.0005 
95 1 0.0234987 0.00448731 0.0211586 0.0005 
96 1 0.0219609 0.00696797 0.021457 0.0005 
97 1 0.0179288 0.00506797 0.0205437 0.0005 
182 1 0.0232388 0.00644797 0.0207499 0.00075 
1643 1 0.0202827 0.00483601 0.021138 0.0005 
1663 1 0.0216052 0.00443811 0.0209758 0.0005 
1901 1 0.0205707 0.0057373 0.0214613 0.0005 
1650 1 0.0227565 0.00536106 0.0221274 0.001 
1623 1 0.0164213 0.00573754 0.0222985 0.0005 
2044 1 0.0161034 0.00330021 0.0206483 0.0005 
26 1 0.000750501 0.00729608 0.02075 0.00075 
100 1 0.00596384 0.00800649 0.0210007 0.001 
101 1 0.00166668 0.00813267 0.0205051 0.0005 
102 1 0.00439241 0.00797649 0.0205 0.0005 
103 1 0.00181157 0.0103774 0.0205 0.0005 
104 1 0.00237234 0.00914102 0.02075 0.00075 
105 1 0.00670406 0.0109072 0.0205081 0.0005 
106 1 0.00346876 0.00854303 0.0205 0.0005 
107 1 0.00342829 0.0108843 0.0205 0.0005 
108 1 0.00467681 0.0108355 0.02075 0.00075 
109 1 0.000499998 0.0104199 0.0205 0.0005 
110 1 0.00519899 0.00922275 0.0205 0.0005 
111 1 0.00126345 0.0112176 0.0205 0.0005 
112 1 0.00455412 0.0128053 0.02075 0.00075 
113 1 0.00553935 0.00986389 0.021616 0.00075 
114 1 0.00505237 0.0116692 0.0216059 0.0005 
116 1 0.00225519 0.0128568 0.0205 0.0005 
118 1 0.000499997 0.0133221 0.0205 0.0005 
119 1 0.00338767 0.0131787 0.0205 0.0005 
122 1 0.00636154 0.0118468 0.0205 0.0005 
124 1 0.0059661 0.0102322 0.0205001 0.0005 
125 1 0.00537825 0.0118679 0.0206815 0.0005 
126 1 0.00387652 0.0138926 0.0210372 0.0005 
128 1 0.00681304 0.0127392 0.0205 0.0005 
129 1 0.00591657 0.01321 0.0205 0.0005 
130 1 0.00124593 0.0125927 0.0211885 0.00075 
131 1 0.000499974 0.0118634 0.0205 0.0005 
132 1 0.00662146 0.00932214 0.0205 0.0005 
133 1 0.0042535 0.00961742 0.0205 0.0005 
134 1 0.000749991 0.00922096 0.02075 0.00075 
136 1 0.00156132 0.00919498 0.0217005 0.0005 
137 1 0.00290923 0.013273 0.021373 0.0005 
138 1 0.000499993 0.00825845 0.0215073 0.0005 
139 1 0.00720772 0.00731773 0.0205 0.0005 
140 1 0.000499997 0.014042 0.0214564 0.0005 
141 1 0.00768954 0.00852335 0.0207679 0.00075 
148 1 0.00788034 0.0133401 0.0207499 0.00075 
1822 1 0.00321985 0.0101915 0.0215196 0.00075 
154 1 0.00759764 0.010067 0.02075 0.00075 
1865 1 0.000851283 0.0114372 0.0215927 0.0005 
1780 1 0.004354 0.00881328 0.0214537 0.00075 
222 1 0.00664453 0.014135 0.0205 0.0005 
1700 1 0.00766831 0.00837296 0.022535 0.001 
142 1 0.0149434 0.00891148 0.0205 0.0005 
143 1 0.014508 0.00776248 0.0205985 0.0005 
144 1 0.010102 0.0104373 0.020505 0.0005 
145 1 0.0139132 0.00886891 0.0205 0.0005 
147 1 0.0133584 0.00801572 0.0205 0.0005 
149 1 0.00957849 0.00763706 0.0212499 0.00125 
150 1 0.0121325 0.00784548 0.0207504 0.00075 
151 1 0.0127264 0.00923199 0.02075 0.00075 
152 1 0.0108311 0.00916837 0.0205 0.0005 
153 1 0.0121539 0.0107914 0.0207499 0.00075 
155 1 0.0122807 0.012286 0.02075 0.00075 
156 1 0.00998801 0.0116134 0.0205 0.0005 
158 1 0.00886323 0.0104023 0.0205 0.0005 
159 1 0.0143407 0.00979089 0.0205 0.0005 
160 1 0.0112133 0.0115888 0.0205 0.0005 
161 1 0.00901148 0.0138108 0.0205 0.0005 
163 1 0.00866385 0.0118051 0.02075 0.00075 
164 1 0.00999932 0.0136423 0.0205 0.0005 
165 1 0.00944726 0.0129898 0.0210191 0.0005 
166 1 0.0110753 0.0131622 0.0209213 0.00075 
167 1 0.00952338 0.00948574 0.0205003 0.0005 
168 1 0.0125992 0.0137562 0.0207499 0.00075 
169 1 0.0132774 0.0113285 0.0205 0.0005 
170 1 0.0147244 0.0112527 0.0209999 0.001 
171 1 0.00878755 0.00954817 0.0215101 0.00075 
172 1 0.013222 0.0106986 0.0217998 0.00075 
173 1 0.0133982 0.0127953 0.0205 0.0005 
174 1 0.0138601 0.013371 0.0212786 0.0005 
175 1 0.00900524 0.0107983 0.0214077 0.0005 
176 1 0.0086369 0.0127588 0.0215575 0.0005 
177 1 0.00902477 0.0119495 0.0221405 0.0005 
179 1 0.0134392 0.0102366 0.0205 0.0005 
180 1 0.0128889 0.0131819 0.022105 0.00075 
184 1 0.0154409 0.0100777 0.0216016 0.0005 
183 1 0.0153048 0.00714291 0.0205003 0.0005 
1640 1 0.0114493 0.00781064 0.0220871 0.00075 
1855 1 0.0112383 0.0141141 0.0217228 0.0005 
1732 1 0.0113935 0.00969503 0.021882 0.001 
181 1 0.0153549 0.00988161 0.0205 0.0005 
191 1 0.0159361 0.00819451 0.0207509 0.00075 
1614 1 0.0111964 0.0122573 0.022415 0.001 
178 1 0.016858 0.012827 0.0205 0.0005 
80 1 0.0201871 0.00752664 0.0207596 0.00075 
185 1 0.0234939 0.00880477 0.0205 0.0005 
186 1 0.0177798 0.00714252 0.0215004 0.0015 
187 1 0.0221225 0.00727035 0.0205 0.0005 
188 1 0.0231734 0.00785304 0.0212706 0.00075 
189 1 0.0235 0.0098084 0.0205 0.0005 
190 1 0.0216161 0.00861038 0.0210043 0.001 
192 1 0.016081 0.0107092 0.0205 0.0005 
193 1 0.018033 0.0133503 0.02075 0.00075 
194 1 0.0199953 0.00873722 0.0205 0.0005 
196 1 0.0203532 0.010084 0.0213643 0.0005 
197 1 0.018694 0.00941779 0.0210104 0.001 
198 1 0.0164023 0.0116975 0.0205 0.0005 
199 1 0.0172458 0.00880437 0.0205 0.0005 
200 1 0.023 0.0111313 0.021 0.001 
201 1 0.0164867 0.00963267 0.0210531 0.00075 
202 1 0.0205666 0.00955928 0.0205 0.0005 
203 1 0.0173185 0.0108458 0.02075 0.00075 
204 1 0.0175046 0.0120582 0.0205 0.0005 
205 1 0.019906 0.0135824 0.0205 0.0005 
206 1 0.0210029 0.0113862 0.02075 0.00075 
207 1 0.0234845 0.0124658 0.0205 0.0005 
208 1 0.0234785 0.0090265 0.0215738 0.0005 
209 1 0.0200974 0.00908225 0.0214495 0.0005 
210 1 0.0222101 0.0126727 0.0207499 0.00075 
211 1 0.0198296 0.0102564 0.0205003 0.0005 
212 1 0.0218775 0.0141353 0.02075 0.00075 
213 1 0.0204848 0.0124963 0.0205 0.0005 
214 1 0.0235 0.0134657 0.0205 0.0005 
215 1 0.0208907 0.0134105 0.0205 0.0005 
216 1 0.0215679 0.010274 0.0215894 0.00075 
217 1 0.0171522 0.0121941 0.0215637 0.0005 
218 1 0.0209917 0.0127332 0.0216226 0.00075 
219 1 0.0229939 0.0134214 0.0213724 0.0005 
221 1 0.0235 0.0124602 0.0214998 0.0005 
324 1 0.0190347 0.0140723 0.0205 0.0005 
1626 1 0.0190877 0.0117144 0.0212499 0.00125 
1740 1 0.0161905 0.0117454 0.0218682 0.0005 
1916 1 0.0168002 0.00878469 0.0221765 0.0005 
1691 1 0.0228067 0.00979684 0.0222931 0.00075 
117 1 0.00342335 0.014604 0.0205 0.0005 
120 1 0.00521022 0.0142132 0.0207586 0.00075 
121 1 0.00201175 0.0145171 0.0209999 0.001 
123 1 0.000596364 0.0143174 0.0205 0.0005 
223 1 0.00478791 0.0156822 0.0205 0.0005 
224 1 0.00300402 0.0155707 0.0205 0.0005 
225 1 0.00236741 0.0163877 0.0205 0.0005 
226 1 0.00651333 0.0157107 0.0212499 0.00125 
227 1 0.00147063 0.0159399 0.0205 0.0005 
228 1 0.000499999 0.0153128 0.0205 0.0005 
229 1 0.000499987 0.0163157 0.0205 0.0005 
230 1 0.00468503 0.0180695 0.0205 0.0005 
231 1 0.00278588 0.0172976 0.0205 0.0005 
232 1 0.00125002 0.0177077 0.0212499 0.00125 
233 1 0.00615044 0.0179769 0.0205 0.0005 
234 1 0.00544985 0.0190409 0.0207499 0.00075 
235 1 0.000501711 0.0196586 0.0205 0.0005 
236 1 0.0042391 0.0167888 0.02075 0.00075 
237 1 0.0057708 0.017517 0.0213058 0.0005 
238 1 0.00514606 0.0167786 0.0216101 0.0005 
239 1 0.00544096 0.0170251 0.0205 0.0005 
240 1 0.00271725 0.0183157 0.0205 0.0005 
241 1 0.00061165 0.0159965 0.021441 0.0005 
242 1 0.000500143 0.0202716 0.0212934 0.0005 
243 1 0.00356485 0.0188471 0.0205 0.0005 
244 1 0.00431524 0.019512 0.0205 0.0005 
245 1 0.00616099 0.0171636 0.0221596 0.0005 
246 1 0.00336374 0.0199827 0.0205 0.0005 
247 1 0.00194282 0.0199197 0.0209999 0.001 
248 1 0.00503016 0.0199758 0.0214656 0.0005 
249 1 0.00707384 0.0205216 0.0205 0.0005 
250 1 0.00362177 0.0178466 0.0205 0.0005 
256 1 0.00738763 0.0189651 0.02125 0.00125 
255 1 0.00747097 0.0172023 0.0221911 0.00075 
392 1 0.0058497 0.0206204 0.0207492 0.00075 
443 1 0.00435344 0.0207455 0.02075 0.00075 
1846 1 0.00359184 0.0194778 0.0216289 0.00075 
393 1 0.0031466 0.0209693 0.0205 0.0005 
1615 1 0.00540955 0.0184619 0.021857 0.0005 
259 1 0.00787288 0.0170899 0.02075 0.00075 
395 1 0.000507049 0.0208833 0.0205008 0.0005 
1616 1 0.00410126 0.0153164 0.0218952 0.001 
1697 1 0.00789301 0.0157346 0.0223288 0.0005 
1802 1 0.00484296 0.0202613 0.0224105 0.0005 
162 1 0.010728 0.0143273 0.0205 0.0005 
146 1 0.00811085 0.0147946 0.0205 0.0005 
252 1 0.0116951 0.0145824 0.0205 0.0005 
254 1 0.0133803 0.0146996 0.0205 0.0005 
257 1 0.0125026 0.0151531 0.0212937 0.00075 
258 1 0.0111957 0.0154488 0.0205 0.0005 
260 1 0.0139976 0.0149041 0.0213236 0.0005 
261 1 0.00812389 0.015804 0.0205 0.0005 
262 1 0.0140127 0.0154743 0.0205 0.0005 
263 1 0.0127943 0.0160736 0.0205 0.0005 
264 1 0.0102565 0.0186047 0.0205 0.0005 
265 1 0.00926992 0.019815 0.0205 0.0005 
267 1 0.0140342 0.0170552 0.02125 0.00125 
268 1 0.011267 0.0184078 0.0205 0.0005 
269 1 0.0102296 0.0157069 0.0205 0.0005 
270 1 0.0118995 0.0196751 0.0207501 0.00075 
271 1 0.0124537 0.0170137 0.0205 0.0005 
272 1 0.0147133 0.0195383 0.0205 0.0005 
273 1 0.0103822 0.0167098 0.0205 0.0005 
274 1 0.0106839 0.0195088 0.0205 0.0005 
275 1 0.00995079 0.0205475 0.0204999 0.0005 
276 1 0.0130013 0.0200149 0.0214186 0.0005 
277 1 0.0109661 0.0204681 0.0205 0.0005 
278 1 0.011986 0.0211862 0.0207499 0.00075 
279 1 0.0141195 0.0210212 0.0205 0.0005 
280 1 0.0115501 0.0174419 0.0205 0.0005 
281 1 0.0124854 0.0182835 0.02075 0.00075 
282 1 0.0129276 0.020403 0.0204999 0.0005 
283 1 0.0139512 0.0186996 0.0205 0.0005 
284 1 0.0130968 0.0194172 0.0205 0.0005 
285 1 0.0138637 0.0200585 0.020605 0.0005 
286 1 0.0137107 0.0193136 0.0212827 0.0005 
287 1 0.0126038 0.0190147 0.0220543 0.00075 
288 1 0.012086 0.0163241 0.0211609 0.0005 
289 1 0.0149754 0.020504 0.0205 0.0005 
290 1 0.0145819 0.0188234 0.0213111 0.0005 
291 1 0.00927889 0.018815 0.0205 0.0005 
292 1 0.0105911 0.0176759 0.0206595 0.0005 
293 1 0.0146901 0.0209742 0.0213375 0.0005 
294 1 0.0134201 0.0209 0.0212157 0.0005 
295 1 0.00866063 0.0180276 0.0204999 0.0005 
296 1 0.0151331 0.0186279 0.0205 0.0005 
297 1 0.0092006 0.0163877 0.02075 0.00075 
298 1 0.0111587 0.018884 0.0213732 0.0005 
300 1 0.0114352 0.0179223 0.0213694 0.0005 
301 1 0.0113444 0.0164377 0.0204999 0.0005 
302 1 0.00820601 0.0161103 0.0214554 0.0005 
303 1 0.0118018 0.0204472 0.021741 0.0005 
304 1 0.0110281 0.0170052 0.0212601 0.0005 
305 1 0.0138129 0.0186217 0.021998 0.0005 
306 1 0.0149982 0.015685 0.0205 0.0005 
307 1 0.0102912 0.0162113 0.0213622 0.0005 
308 1 0.0122011 0.0172785 0.0214366 0.0005 
309 1 0.0127103 0.0207897 0.0219808 0.0005 
310 1 0.0126794 0.0162004 0.0219561 0.0005 
311 1 0.00960427 0.017697 0.0205 0.0005 
312 1 0.0104857 0.0177755 0.0216489 0.0005 
314 1 0.0115605 0.0165389 0.0219843 0.0005 
315 1 0.0103561 0.0200656 0.0218613 0.001 
316 1 0.0154934 0.0176949 0.0205 0.0005 
317 1 0.0158536 0.0200253 0.0205 0.0005 
318 1 0.0113936 0.0191186 0.0224006 0.0005 
319 1 0.0111881 0.0157764 0.0214447 0.0005 
320 1 0.015563 0.0166517 0.0205 0.0005 
321 1 0.00913155 0.0193088 0.0213714 0.0005 
322 1 0.0140144 0.0202048 0.0216198 0.0005 
323 1 0.00867252 0.0173031 0.0216869 0.0005 
331 1 0.0158461 0.0170109 0.0213893 0.0005 
1603 1 0.00936433 0.0151731 0.0205 0.0005 
325 1 0.0144649 0.0145825 0.0205 0.0005 
1637 1 0.00950695 0.0178326 0.0218459 0.0005 
1721 1 0.0155558 0.0168167 0.0223268 0.0005 
461 1 0.00850691 0.0212005 0.0212499 0.00125 
220 1 0.0206956 0.01422 0.021171 0.0005 
1729 1 0.0203593 0.0151867 0.0219239 0.0005 
326 1 0.0199958 0.01501 0.0205 0.0005 
327 1 0.0234745 0.0144711 0.0205 0.0005 
328 1 0.0188791 0.0148899 0.0210541 0.0005 
329 1 0.0180379 0.0152616 0.0218035 0.0005 
330 1 0.0179298 0.0145432 0.0211093 0.0005 
332 1 0.0234995 0.0142773 0.0214807 0.0005 
333 1 0.0181558 0.0153039 0.0205 0.0005 
334 1 0.0213987 0.0153062 0.0209416 0.0005 
336 1 0.0225505 0.0151586 0.0205003 0.0005 
337 1 0.0168605 0.0158831 0.0209999 0.001 
338 1 0.0183529 0.0160954 0.0211635 0.0005 
339 1 0.0190522 0.0157484 0.0205 0.0005 
340 1 0.0180399 0.017119 0.0214361 0.0005 
341 1 0.0179592 0.0167735 0.0205 0.0005 
342 1 0.0173125 0.0186921 0.0205 0.0005 
343 1 0.0222174 0.0163382 0.02075 0.00075 
344 1 0.0179916 0.017773 0.0205 0.0005 
345 1 0.0191641 0.0169637 0.0207751 0.00075 
346 1 0.0235 0.0176434 0.0205 0.0005 
347 1 0.0223073 0.0179212 0.02075 0.00075 
348 1 0.0210118 0.0161156 0.0205 0.0005 
349 1 0.0201288 0.0177095 0.0205 0.0005 
350 1 0.0183121 0.0187203 0.0205 0.0005 
351 1 0.0191823 0.0182198 0.0205 0.0005 
352 1 0.0234994 0.0186545 0.0204999 0.0005 
353 1 0.0195231 0.0185099 0.0216671 0.00075 
354 1 0.0167369 0.017611 0.0207499 0.00075 
355 1 0.0209697 0.0186 0.02075 0.00075 
356 1 0.0212714 0.0172595 0.0205 0.0005 
357 1 0.0198029 0.0190127 0.0205 0.0005 
358 1 0.023499 0.0154757 0.0205 0.0005 
359 1 0.0200144 0.0160207 0.0205 0.0005 
360 1 0.0183449 0.018892 0.0214846 0.0005 
361 1 0.0203696 0.0200999 0.02075 0.00075 
362 1 0.0187719 0.0198557 0.02075 0.00075 
363 1 0.0235 0.0164758 0.0205 0.0005 
364 1 0.0225 0.0200691 0.0214999 0.0015 
366 1 0.0204405 0.0168406 0.0208844 0.0005 
367 1 0.0232417 0.0170597 0.0215747 0.00075 
368 1 0.0173528 0.0191144 0.0214056 0.0005 
369 1 0.0235 0.0182735 0.0214244 0.0005 
370 1 0.0195973 0.0197576 0.0216836 0.0005 
371 1 0.017711 0.0181168 0.0213961 0.0005 
373 1 0.0184729 0.0208694 0.0221754 0.0005 
374 1 0.0175626 0.0196617 0.0205 0.0005 
375 1 0.0170136 0.0211533 0.0212516 0.00125 
376 1 0.016132 0.0186759 0.0205 0.0005 
377 1 0.0229812 0.0154053 0.021648 0.00075 
378 1 0.0206952 0.020875 0.0218053 0.0005 
379 1 0.0166313 0.0194823 0.0208168 0.0005 
380 1 0.0211066 0.0178655 0.0217939 0.0005 
381 1 0.0206539 0.019233 0.0217868 0.0005 
382 1 0.0234998 0.0185736 0.0223783 0.0005 
383 1 0.0199075 0.0164716 0.0217185 0.0005 
385 1 0.0170635 0.0173528 0.0219285 0.0005 
386 1 0.0194028 0.0156444 0.0214496 0.0005 
388 1 0.0201987 0.0174582 0.021633 0.0005 
1636 1 0.00224678 0.0212969 0.0222044 0.00075 
390 1 0.00658443 0.0214719 0.0217384 0.00075 
391 1 0.00695599 0.0215152 0.0205 0.0005 
394 1 0.0051372 0.0218408 0.0205 0.0005 
396 1 0.00206839 0.0216486 0.02075 0.00075 
397 1 0.00546147 0.0254411 0.0205008 0.0005 
398 1 0.00623562 0.0240676 0.02075 0.00075 
399 1 0.00470355 0.0231921 0.0209999 0.001 
400 1 0.000750422 0.022365 0.02075 0.00075 
401 1 0.00127293 0.0256722 0.0213331 0.0005 
402 1 0.000706278 0.0252856 0.0205001 0.0005 
403 1 0.000521018 0.0262683 0.0205 0.0005 
404 1 0.00755715 0.0225249 0.0205 0.0005 
405 1 0.00272908 0.0254151 0.0205 0.0005 
406 1 0.00587058 0.0263533 0.0204999 0.0005 
407 1 0.00364194 0.0245643 0.0207683 0.00075 
408 1 0.000585532 0.0235786 0.0205 0.0005 
409 1 0.00672816 0.0254842 0.0207674 0.00075 
410 1 0.00405766 0.021934 0.0205 0.0005 
411 1 0.000501585 0.0213169 0.0214034 0.0005 
412 1 0.00191104 0.0241515 0.0209999 0.001 
413 1 0.00632094 0.0225672 0.0207491 0.00075 
415 1 0.00684737 0.0267003 0.0205 0.0005 
416 1 0.00275529 0.0268098 0.02075 0.00075 
417 1 0.00785877 0.0267104 0.0205 0.0005 
418 1 0.00496534 0.0267783 0.0205 0.0005 
419 1 0.000499979 0.0250487 0.0214505 0.0005 
420 1 0.00734297 0.0275689 0.0205 0.0005 
421 1 0.00489103 0.0245987 0.0205 0.0005 
422 1 0.00053369 0.0246291 0.0223577 0.0005 
423 1 0.000502267 0.0262781 0.0215349 0.0005 
424 1 0.0018078 0.0258128 0.0205 0.0005 
426 1 0.00301272 0.0228146 0.02075 0.00075 
427 1 0.00743044 0.0264926 0.0218443 0.00075 
428 1 0.00140827 0.0267295 0.0205 0.0005 
429 1 0.00446265 0.0255123 0.0205 0.0005 
430 1 0.003583 0.0258172 0.0209038 0.0005 
431 1 0.00624389 0.0264532 0.0214281 0.0005 
432 1 0.00513403 0.0214918 0.0214371 0.0005 
433 1 0.00183111 0.0276359 0.0205 0.0005 
434 1 0.0039957 0.0273823 0.021175 0.0005 
435 1 0.00397436 0.0266448 0.0205 0.0005 
436 1 0.00606142 0.0231599 0.0221051 0.00075 
437 1 0.00117995 0.0278293 0.0212338 0.0005 
438 1 0.000499996 0.0271306 0.0210108 0.0005 
439 1 0.00207958 0.0273665 0.0219679 0.00075 
440 1 0.00492787 0.026996 0.0214752 0.0005 
442 1 0.00696401 0.0276035 0.021513 0.0005 
444 1 0.0034398 0.0213009 0.0213974 0.0005 
445 1 0.00597361 0.0275734 0.02075 0.00075 
446 1 0.00719606 0.0231554 0.0214195 0.0005 
447 1 0.000499987 0.0277425 0.0219619 0.0005 
448 1 0.0076983 0.0244543 0.0205 0.0005 
450 1 0.00372683 0.0280694 0.0205 0.0005 
453 1 0.00734111 0.0235203 0.0204999 0.0005 
454 1 0.00466858 0.0277332 0.0205 0.0005 
455 1 0.00753699 0.0280731 0.0222246 0.0005 
456 1 0.00371777 0.0222383 0.0216076 0.0005 
594 1 0.00272693 0.0280802 0.0205 0.0005 
629 1 0.00391122 0.0271969 0.022154 0.0005 
1594 1 0.00744352 0.0245751 0.0224118 0.00125 
522 1 0.00789384 0.0226801 0.0219546 0.0005 
463 1 0.0079477 0.025424 0.0205 0.0005 
579 1 0.00801302 0.028312 0.0205 0.0005 
457 1 0.015461 0.0218364 0.0217335 0.0005 
313 1 0.0112642 0.0213967 0.0217484 0.0005 
458 1 0.0101137 0.0215515 0.0219211 0.0005 
459 1 0.013294 0.0215869 0.0204999 0.0005 
460 1 0.0141046 0.0223333 0.0217968 0.0005 
462 1 0.00984788 0.0224359 0.0215356 0.0005 
464 1 0.00884154 0.0268975 0.0205 0.0005 
465 1 0.0105455 0.0216183 0.02075 0.00075 
466 1 0.00878671 0.0234192 0.0209999 0.001 
467 1 0.00915687 0.0252095 0.02075 0.00075 
468 1 0.0104362 0.0243169 0.0216458 0.00075 
469 1 0.00983439 0.0267744 0.0205 0.0005 
470 1 0.00993977 0.0242391 0.0205011 0.0005 
471 1 0.0133634 0.0244942 0.0205 0.0005 
473 1 0.0130447 0.0254461 0.0205 0.0005 
474 1 0.0145863 0.0245862 0.0205001 0.0005 
475 1 0.0120899 0.0233166 0.0205 0.0005 
476 1 0.0125806 0.0223909 0.0205 0.0005 
477 1 0.0111853 0.0256655 0.0212122 0.0005 
478 1 0.0113992 0.0240401 0.0205 0.0005 
479 1 0.0129184 0.0219708 0.0216286 0.00075 
480 1 0.0114118 0.0263346 0.0205 0.0005 
481 1 0.012457 0.0250917 0.0215447 0.00075 
482 1 0.0139494 0.0252132 0.0213764 0.00075 
483 1 0.0118658 0.0254436 0.0205 0.0005 
484 1 0.0123353 0.0243927 0.0205 0.0005 
485 1 0.0125233 0.0238393 0.0213256 0.0005 
486 1 0.0149201 0.0255287 0.0205 0.0005 
487 1 0.0105404 0.0231183 0.02075 0.00075 
488 1 0.0150512 0.0237006 0.0205 0.0005 
489 1 0.0109872 0.024965 0.0205 0.0005 
490 1 0.0134628 0.0232444 0.02075 0.00075 
491 1 0.0140942 0.0260924 0.0204999 0.0005 
492 1 0.0104943 0.0258885 0.0205 0.0005 
493 1 0.0107775 0.0271078 0.0205 0.0005 
494 1 0.0142029 0.0263925 0.0221466 0.0005 
495 1 0.0128317 0.027044 0.0212501 0.00125 
496 1 0.0153457 0.0245371 0.0211978 0.0005 
497 1 0.0147193 0.0268728 0.0204999 0.0005 
498 1 0.0146978 0.026236 0.0212841 0.0005 
499 1 0.0145418 0.0271678 0.0216122 0.0005 
500 1 0.0158258 0.0263511 0.0207564 0.00075 
501 1 0.0147719 0.0225078 0.0207504 0.00075 
502 1 0.0144327 0.0239776 0.0212792 0.0005 
503 1 0.0151526 0.0254249 0.0216517 0.0005 
504 1 0.012081 0.0228687 0.021394 0.0005 
505 1 0.0104719 0.0265453 0.0212781 0.0005 
506 1 0.0154341 0.0274384 0.0212461 0.0005 
507 1 0.0109114 0.0275561 0.0213963 0.0005 
508 1 0.0133325 0.0243339 0.0220153 0.0005 
509 1 0.0115308 0.0237035 0.0214491 0.0005 
510 1 0.00943804 0.0258808 0.0217662 0.0005 
511 1 0.0157975 0.0265452 0.0219909 0.0005 
512 1 0.00923176 0.0245869 0.0218483 0.0005 
513 1 0.00842491 0.0257709 0.0215935 0.0005 
514 1 0.0115804 0.0224276 0.0205952 0.0005 
515 1 0.0158759 0.0250195 0.0205 0.0005 
516 1 0.0155593 0.0232865 0.0221047 0.001 
517 1 0.0114599 0.027839 0.0205 0.0005 
518 1 0.00946135 0.0277746 0.0205073 0.0005 
519 1 0.0144753 0.0280724 0.0207522 0.00075 
520 1 0.0150262 0.0279519 0.022001 0.0005 
523 1 0.0147951 0.0245758 0.0220406 0.0005 
525 1 0.0159788 0.022728 0.0205 0.0005 
1723 1 0.0109571 0.0227966 0.0221909 0.00075 
526 1 0.0191656 0.0213032 0.02075 0.00075 
372 1 0.0214612 0.0216457 0.0225059 0.0005 
527 1 0.0214102 0.0214168 0.0205 0.0005 
528 1 0.0199835 0.0215624 0.021659 0.0005 
529 1 0.0190039 0.0220442 0.0217481 0.0005 
530 1 0.0166275 0.0252259 0.0218381 0.001 
532 1 0.0204272 0.0216054 0.0205 0.0005 
533 1 0.0210709 0.0217484 0.0213803 0.0005 
534 1 0.0234991 0.0218015 0.0215776 0.0005 
535 1 0.0160924 0.0275451 0.0205 0.0005 
536 1 0.0234793 0.0214982 0.0205 0.0005 
538 1 0.0223091 0.0225113 0.0209999 0.001 
539 1 0.0202005 0.0248353 0.0204999 0.0005 
540 1 0.0165049 0.0238617 0.0207495 0.00075 
541 1 0.019694 0.025699 0.0205003 0.0005 
542 1 0.0183459 0.0225599 0.02075 0.00075 
543 1 0.0216612 0.0237684 0.0205 0.0005 
544 1 0.0235 0.0260612 0.0205 0.0005 
545 1 0.0184622 0.0254938 0.0207499 0.00075 
546 1 0.02325 0.0239655 0.02075 0.00075 
547 1 0.0235 0.0231434 0.0216597 0.0005 
548 1 0.0235001 0.0272542 0.0205 0.0005 
549 1 0.0228553 0.0253484 0.0212992 0.00075 
550 1 0.021917 0.025564 0.0205 0.0005 
551 1 0.0180967 0.0240393 0.0207658 0.00075 
552 1 0.0222064 0.0246068 0.0205 0.0005 
553 1 0.0171033 0.0227931 0.0204999 0.0005 
554 1 0.0169354 0.0258358 0.0205 0.0005 
555 1 0.0172748 0.0230696 0.0217641 0.00075 
556 1 0.0224203 0.0266791 0.0207563 0.00075 
557 1 0.0172036 0.024872 0.0204996 0.0005 
558 1 0.0201659 0.0232543 0.0212499 0.00125 
559 1 0.0211888 0.0246778 0.0205 0.0005 
560 1 0.0183666 0.0246739 0.022098 0.00075 
561 1 0.0176457 0.0272495 0.0212497 0.00125 
562 1 0.0191024 0.0266344 0.0205 0.0005 
563 1 0.0208149 0.0257741 0.0214954 0.001 
564 1 0.0193594 0.026128 0.0213491 0.0005 
565 1 0.0214614 0.022609 0.0222336 0.0005 
566 1 0.019219 0.0245211 0.0205 0.0005 
567 1 0.0234995 0.026679 0.0213876 0.0005 
568 1 0.0234977 0.0260169 0.0221377 0.0005 
569 1 0.0195142 0.0250543 0.0212932 0.0005 
570 1 0.0185518 0.0258985 0.0219295 0.0005 
571 1 0.0225349 0.0279926 0.0205 0.0005 
572 1 0.0216819 0.0273017 0.0215499 0.0005 
573 1 0.0216152 0.0276001 0.0204999 0.0005 
574 1 0.0200614 0.0278926 0.0212499 0.00125 
575 1 0.0185294 0.0234204 0.0218474 0.0005 
576 1 0.0194921 0.0256093 0.0221939 0.0005 
577 1 0.0234845 0.0276795 0.0214197 0.0005 
578 1 0.0190775 0.0267296 0.0221111 0.0005 
1630 1 0.0199708 0.0247318 0.0221672 0.0005 
718 1 0.0235 0.0282542 0.0205 0.0005 
451 1 0.000749913 0.0288985 0.0207499 0.00075 
606 1 0.00253543 0.0287936 0.022043 0.00075 
580 1 0.00050674 0.0312703 0.0205 0.0005 
581 1 0.00362504 0.0311975 0.0205 0.0005 
582 1 0.00168331 0.0332448 0.0207523 0.00075 
583 1 0.00315274 0.0292372 0.0207499 0.00075 
584 1 0.00531648 0.0327514 0.02075 0.00075 
585 1 0.000500002 0.0332226 0.0214418 0.0005 
586 1 0.0018268 0.0299425 0.0207499 0.00075 
587 1 0.00285963 0.0329045 0.0205 0.0005 
588 1 0.00227308 0.031616 0.021 0.001 
589 1 0.00196239 0.0287249 0.0205 0.0005 
590 1 0.000500091 0.0301055 0.0205 0.0005 
591 1 0.00645093 0.0334222 0.0204999 0.0005 
592 1 0.00365991 0.0335042 0.0205 0.0005 
593 1 0.00462588 0.0337629 0.0205 0.0005 
595 1 0.00484898 0.0311537 0.0207498 0.00075 
596 1 0.00521648 0.0293202 0.0205 0.0005 
597 1 0.00634794 0.0312085 0.0207499 0.00075 
598 1 0.0041115 0.0300768 0.0205 0.0005 
599 1 0.00650075 0.0324236 0.0205 0.0005 
600 1 0.00733313 0.0342716 0.02075 0.00075 
601 1 0.00432208 0.0288729 0.0205 0.0005 
602 1 0.00679824 0.0293253 0.02125 0.00125 
603 1 0.00409771 0.0305979 0.021923 0.00075 
604 1 0.00512644 0.0299956 0.0212318 0.0005 
605 1 0.00500031 0.0284617 0.0214675 0.00075 
607 1 0.00707411 0.0319034 0.0214929 0.0005 
608 1 0.00571401 0.0306885 0.0216934 0.0005 
609 1 0.00075029 0.0320384 0.0217539 0.00075 
610 1 0.00322018 0.0304532 0.0210311 0.0005 
611 1 0.00556991 0.0318097 0.0215319 0.0005 
612 1 0.000561065 0.0323023 0.0205 0.0005 
613 1 0.00388613 0.0323396 0.0209359 0.00075 
614 1 0.000764542 0.0305427 0.0216409 0.00075 
615 1 0.00375251 0.0283907 0.0214471 0.0005 
616 1 0.00426145 0.0294807 0.0212919 0.0005 
617 1 0.000749998 0.0291394 0.0222305 0.00075 
618 1 0.00173412 0.0345829 0.0205019 0.0005 
620 1 0.00199733 0.030437 0.021886 0.0005 
621 1 0.00486208 0.0295447 0.0220915 0.0005 
622 1 0.00735629 0.0319059 0.0205 0.0005 
623 1 0.00692148 0.0309701 0.0218347 0.0005 
624 1 0.00237494 0.0329322 0.021746 0.0005 
625 1 0.00752608 0.0343435 0.0219829 0.0005 
626 1 0.00740112 0.0329077 0.0205 0.0005 
627 1 0.00291447 0.0300298 0.0218839 0.0005 
628 1 0.000499968 0.0335585 0.0205 0.0005 
631 1 0.00568505 0.0343778 0.02075 0.00075 
632 1 0.00112564 0.0342767 0.0216874 0.00075 
633 1 0.00650332 0.0343101 0.0216926 0.0005 
634 1 0.000500005 0.0345585 0.0205 0.0005 
635 1 0.00503754 0.0341621 0.0217972 0.0005 
766 1 0.00656722 0.0352273 0.0205 0.0005 
751 1 0.00398638 0.0346175 0.0205 0.0005 
789 1 0.00740558 0.0352477 0.0215274 0.0005 
1659 1 0.00692874 0.0331358 0.0216424 0.00075 
1618 1 0.00303584 0.0342855 0.0205 0.0005 
644 1 0.00798708 0.030856 0.02075 0.00075 
1675 1 0.00287262 0.0320962 0.0222884 0.0005 
702 1 0.00788306 0.0312235 0.0219402 0.0005 
776 1 0.00462508 0.0348742 0.0212277 0.0005 
785 1 0.00238372 0.0352023 0.020962 0.0005 
1787 1 0.00183768 0.0319129 0.022405 0.0005 
521 1 0.0102963 0.0286953 0.0214099 0.0005 
637 1 0.00881818 0.034099 0.0205 0.0005 
638 1 0.0129465 0.028897 0.0220171 0.00075 
639 1 0.00896057 0.0286448 0.0205 0.0005 
640 1 0.00834731 0.0296539 0.0205 0.0005 
641 1 0.0129216 0.0318004 0.02075 0.00075 
642 1 0.0106575 0.0314609 0.0204999 0.0005 
643 1 0.011706 0.0319493 0.0204999 0.0005 
645 1 0.0111645 0.0327898 0.0205 0.0005 
646 1 0.0122512 0.0328258 0.0205 0.0005 
647 1 0.0103136 0.0305209 0.0205 0.0005 
648 1 0.0132445 0.0329817 0.0204999 0.0005 
649 1 0.00938954 0.0301352 0.0205 0.0005 
650 1 0.0129865 0.0298474 0.0205 0.0005 
651 1 0.0106696 0.0284518 0.0205 0.0005 
652 1 0.00826555 0.0322256 0.0212959 0.00075 
653 1 0.0148101 0.0291978 0.0217929 0.00075 
654 1 0.0117277 0.0305353 0.021 0.001 
655 1 0.0101714 0.0300029 0.0216287 0.00075 
656 1 0.0133335 0.0285434 0.0205 0.0005 
657 1 0.0108112 0.0294558 0.0205 0.0005 
658 1 0.00895376 0.030366 0.0213727 0.0005 
659 1 0.00942351 0.0313622 0.02075 0.00075 
660 1 0.0126686 0.0337991 0.0204999 0.0005 
661 1 0.014629 0.0292868 0.0204999 0.0005 
662 1 0.0116801 0.0336466 0.0204999 0.0005 