ITEM: TIMESTEP
230000
ITEM: NUMBER OF ATOMS
2047
ITEM: BOX BOUNDS mm mm mm
-2.4e-06 0.0240024
-7.8e-06 0.0780078
-3e-06 0.030003
ITEM: ATOMS id type x y z radius 
324 1 0.00766076 0.00387992 0.0219997 0.002 
291 1 0.00275613 0.00156739 0.0214996 0.0015 
368 1 0.00050395 0.00145144 0.0205 0.0005 
784 1 0.0053372 0.00308653 0.02075 0.00075 
32 1 0.00529808 0.000499995 0.0205 0.0005 
241 1 0.00441027 0.00228496 0.0205 0.0005 
815 1 0.00114955 0.00221503 0.0204999 0.0005 
448 1 0.00372327 0.00301161 0.0205 0.0005 
300 1 0.000503823 0.000505093 0.020823 0.0005 
442 1 0.00103479 0.00362449 0.021 0.001 
816 1 0.00583092 0.0049728 0.0205 0.0005 
710 1 0.00417619 0.000500142 0.0205 0.0005 
527 1 0.000499997 0.00493617 0.0205041 0.0005 
256 1 0.000527937 0.00619417 0.0205 0.0005 
870 1 0.00767375 0.00589016 0.0204999 0.0005 
100 1 0.00447599 0.00259026 0.0215079 0.0005 
153 1 0.00476099 0.00134779 0.0205 0.0005 
486 1 0.0036145 0.00515613 0.0222498 0.00225 
722 1 0.00149164 0.0050651 0.0205 0.0005 
864 1 0.00478421 0.000755861 0.0213188 0.0005 
503 1 0.000500324 0.00497915 0.0215144 0.0005 
561 1 0.00596978 0.00168098 0.02075 0.00075 
501 1 0.00591345 0.000500191 0.0212882 0.0005 
64 1 0.00634994 0.0063873 0.0209998 0.001 
954 1 0.00652883 0.000503328 0.0205 0.0005 
274 1 0.00767217 0.00690631 0.0205 0.0005 
75 1 0.00161668 0.00683746 0.0207499 0.00075 
1195 1 0.00784358 0.00139246 0.0218186 0.0005 
390 1 0.000500252 0.00598761 0.021478 0.0005 
887 1 0.00653027 0.00686786 0.0224093 0.0005 
380 1 0.00498214 0.00689937 0.0205 0.0005 
587 1 0.000500779 0.00428727 0.0222391 0.0005 
370 1 0.0077562 0.000749992 0.02075 0.00075 
1492 1 0.000501869 0.00531362 0.0224646 0.0005 
28 1 0.000749639 0.000749846 0.0221047 0.00075 
842 1 0.00625621 0.00589862 0.022455 0.0005 
121 1 0.00861996 0.00622167 0.0205 0.0005 
228 1 0.00906415 0.00532112 0.0205001 0.0005 
490 1 0.00962179 0.00449073 0.0205 0.0005 
199 1 0.0117564 0.0031529 0.0205004 0.0005 
395 1 0.0107019 0.00260048 0.0205004 0.0005 
474 1 0.013738 0.00175433 0.0207498 0.00075 
282 1 0.0104112 0.00142294 0.0205005 0.0005 
590 1 0.00996535 0.000500648 0.0205 0.0005 
176 1 0.0130201 0.000500024 0.0205 0.0005 
289 1 0.0109663 0.000500484 0.0205 0.0005 
362 1 0.00895516 0.000500016 0.0205 0.0005 
783 1 0.0109762 0.00390476 0.0205 0.0005 
51 1 0.0128192 0.00281905 0.0205 0.0005 
233 1 0.00951958 0.00226939 0.0207501 0.00075 
217 1 0.0107743 0.00488419 0.0205 0.0005 
636 1 0.0120454 0.00647809 0.0205 0.0005 
549 1 0.0101769 0.00456639 0.0213286 0.0005 
126 1 0.0125039 0.00472091 0.0214999 0.0015 
307 1 0.00824282 0.00193088 0.0205 0.0005 
676 1 0.00995441 0.00108717 0.021616 0.00075 
209 1 0.0139159 0.0058192 0.0205 0.0005 
730 1 0.00876767 0.00164733 0.0215314 0.0005 
764 1 0.0103538 0.00641649 0.0212502 0.00125 
311 1 0.0145668 0.0067965 0.0215866 0.001 
763 1 0.00962245 0.00349022 0.0204999 0.0005 
66 1 0.0142934 0.00482231 0.0205 0.0005 
61 1 0.0149449 0.00581306 0.0205019 0.0005 
108 1 0.0148627 0.00333063 0.0212498 0.00125 
581 1 0.0123846 0.00689663 0.0220595 0.00075 
89 1 0.0087426 0.0005 0.0214771 0.0005 
155 1 0.0118642 0.00167167 0.021444 0.00125 
178 1 0.0148919 0.000749997 0.02075 0.00075 
364 1 0.010407 0.00334505 0.021462 0.00075 
895 1 0.0108316 0.000500169 0.0222866 0.0005 
161 1 0.02325 0.000749945 0.0207498 0.00075 
159 1 0.0227995 0.00339866 0.0205 0.0005 
204 1 0.0235 0.00419649 0.0204999 0.0005 
219 1 0.0214374 0.000999889 0.0209999 0.001 
333 1 0.0232501 0.00375813 0.0216435 0.00075 
142 1 0.0232499 0.00225924 0.02075 0.00075 
200 1 0.0201721 0.00266262 0.0207499 0.00075 
340 1 0.0218191 0.00447971 0.0207499 0.00075 
452 1 0.0235 0.00519646 0.0205 0.0005 
518 1 0.0188987 0.000758048 0.020752 0.00075 
185 1 0.016436 0.00527343 0.0212498 0.00125 
31 1 0.0168983 0.0014995 0.0214998 0.0015 
123 1 0.0228445 0.0010858 0.0224186 0.001 
273 1 0.0217247 0.00291008 0.0215177 0.001 
113 1 0.0172969 0.00329885 0.0205 0.0005 
544 1 0.0184881 0.00438225 0.0210099 0.001 
577 1 0.0232503 0.00555342 0.0216715 0.00075 
652 1 0.018092 0.00569396 0.0216492 0.0005 
290 1 0.0186724 0.00266179 0.0207498 0.00075 
281 1 0.0200897 0.00382812 0.0216909 0.00075 
190 1 0.0175281 0.00689618 0.0207508 0.00075 
57 1 0.0203924 0.00604961 0.0214999 0.0015 
143 1 0.02257 0.00574594 0.0205 0.0005 
853 1 0.0184484 0.00579224 0.0204999 0.0005 
106 1 0.0221069 0.00506917 0.0218137 0.0005 
1012 1 0.0183692 0.00690022 0.0219953 0.00075 
109 1 0.0187432 0.00674775 0.0205 0.0005 
998 1 0.00074992 0.0071285 0.0219388 0.00075 
1359 1 0.00280233 0.00714534 0.0205 0.0005 
588 1 0.00376727 0.00741042 0.0205 0.0005 
360 1 0.00662655 0.0122286 0.0205015 0.0005 
154 1 0.00472396 0.00817442 0.0207521 0.00075 
13 1 0.000500367 0.00738367 0.0205 0.0005 
879 1 0.00587923 0.00775343 0.0205 0.0005 
137 1 0.000696662 0.00836707 0.0205009 0.0005 
44 1 0.00520226 0.00973307 0.02075 0.00075 
401 1 0.00592794 0.011299 0.0218091 0.00125 
1166 1 0.00567651 0.00776385 0.0218452 0.00075 
1234 1 0.00601933 0.00889844 0.0214441 0.0005 
323 1 0.00250627 0.00925321 0.0220034 0.002 
820 1 0.000502903 0.00934873 0.0205 0.0005 
1067 1 0.0077722 0.0127652 0.0205 0.0005 
713 1 0.00231378 0.011258 0.0205 0.0005 
881 1 0.0005056 0.0104162 0.0205 0.0005 
943 1 0.00324028 0.0116343 0.0205 0.0005 
673 1 0.00426504 0.0109636 0.0207499 0.00075 
174 1 0.00100053 0.0117827 0.0209999 0.001 
447 1 0.00626307 0.00867702 0.0204999 0.0005 
1070 1 0.00771191 0.00718462 0.0217555 0.00075 
737 1 0.00543373 0.012395 0.0205 0.0005 
646 1 0.00140469 0.0137199 0.0205 0.0005 
508 1 0.000500144 0.0131339 0.0205165 0.0005 
35 1 0.00795978 0.00946273 0.0215646 0.0015 
872 1 0.00763925 0.0115359 0.0207501 0.00075 
439 1 0.00658324 0.0138112 0.0212526 0.00125 
891 1 0.00701179 0.00769269 0.0205 0.0005 
427 1 0.00451448 0.00777525 0.0223074 0.0005 
1190 1 0.00498114 0.00896757 0.0217131 0.0005 
196 1 0.000591823 0.013617 0.0214063 0.0005 
479 1 0.00050059 0.0128698 0.0220839 0.0005 
911 1 0.0043354 0.0109357 0.0224444 0.0005 
611 1 0.00816253 0.0138175 0.0204996 0.0005 
171 1 0.0130708 0.00714909 0.0207499 0.00075 
275 1 0.0140674 0.0082701 0.0207498 0.00075 
46 1 0.00876957 0.00752878 0.0207495 0.00075 
556 1 0.0135683 0.0096851 0.02075 0.00075 
287 1 0.0119178 0.0106333 0.0205 0.0005 
865 1 0.0137308 0.0114103 0.0205046 0.0005 
756 1 0.0115774 0.00892074 0.0214999 0.0015 
318 1 0.013671 0.00846082 0.0221836 0.00075 
686 1 0.00961882 0.00873567 0.0205 0.0005 
10 1 0.0152855 0.00814287 0.0205 0.0005 
569 1 0.0129076 0.0107874 0.0205558 0.0005 
252 1 0.00873258 0.0109799 0.0205 0.0005 
188 1 0.0148228 0.0128761 0.0214999 0.0015 
772 1 0.0125189 0.0117584 0.0205 0.0005 
709 1 0.00990932 0.010236 0.02075 0.00075 
1061 1 0.0115254 0.0115535 0.0205 0.0005 
110 1 0.0131035 0.012576 0.0205 0.0005 
1118 1 0.00987632 0.00988484 0.0219501 0.0005 
59 1 0.0118088 0.0125125 0.0205 0.0005 
974 1 0.0117321 0.0136714 0.0205 0.0005 
734 1 0.0125249 0.0126167 0.021621 0.00075 
968 1 0.0120996 0.0111268 0.0217074 0.00075 
62 1 0.00980266 0.0126814 0.0220054 0.002 
1238 1 0.00974673 0.008096 0.0213935 0.0005 
1028 1 0.0135886 0.0109244 0.0216539 0.00075 
1653 1 0.0152046 0.00885566 0.021197 0.0005 
80 1 0.0151998 0.0104558 0.0210033 0.001 
1922 1 0.0159178 0.00818594 0.021495 0.0005 
192 1 0.0160554 0.00719054 0.0207509 0.00075 
1846 1 0.0162391 0.0084437 0.0205001 0.0005 
714 1 0.0160771 0.0116616 0.0205 0.0005 
342 1 0.0169363 0.0121031 0.0213095 0.00075 
319 1 0.021503 0.00745667 0.0205 0.0005 
6 1 0.0228867 0.00712781 0.0209999 0.001 
293 1 0.0189811 0.0107181 0.0217498 0.00175 
735 1 0.021144 0.0100361 0.0213642 0.0005 
308 1 0.0204488 0.00849875 0.0209999 0.001 
49 1 0.0174652 0.00962004 0.0205003 0.0005 
146 1 0.0192923 0.00758852 0.0205 0.0005 
578 1 0.0229386 0.0091271 0.0209999 0.001 
139 1 0.017083 0.0138197 0.0209999 0.001 
90 1 0.0187791 0.00824046 0.0214555 0.00075 
71 1 0.0214044 0.0096043 0.0205 0.0005 
659 1 0.0174634 0.00839523 0.0207521 0.00075 
967 1 0.0165123 0.00992928 0.0205 0.0005 
130 1 0.0216917 0.011838 0.0205005 0.0005 
41 1 0.0220898 0.0106391 0.02075 0.00075 
231 1 0.0234994 0.010426 0.0205001 0.0005 
279 1 0.0234999 0.00810862 0.0219548 0.0005 
693 1 0.021641 0.00776591 0.0215391 0.0005 
725 1 0.0232501 0.0113132 0.0214201 0.00075 
697 1 0.0208771 0.0104614 0.0204997 0.0005 
330 1 0.0227466 0.0125565 0.0207499 0.00075 
78 1 0.0225015 0.0137556 0.0204995 0.0005 
800 1 0.0207292 0.0115575 0.0205 0.0005 
538 1 0.0234997 0.0125185 0.0217488 0.0005 
1236 1 0.018809 0.0130927 0.0212699 0.0005 
812 1 0.0219903 0.0117014 0.0214789 0.0005 
944 1 0.0234991 0.0134023 0.0212813 0.0005 
794 1 0.0179411 0.0127769 0.0216533 0.0005 
592 1 0.0180375 0.0124972 0.0205 0.0005 
910 1 0.0216457 0.0089644 0.022192 0.00075 
523 1 0.0184875 0.0136438 0.0205 0.0005 
956 1 0.0192238 0.0126078 0.0205 0.0005 
350 1 0.0208017 0.0134042 0.0214998 0.0015 
1193 1 0.0185049 0.0140707 0.0214057 0.0005 
639 1 0.0227442 0.013719 0.0218645 0.0005 
1899 1 0.0165188 0.0091777 0.0211601 0.0005 
1138 1 0.02325 0.0101568 0.0223801 0.00075 
272 1 0.0234873 0.0140257 0.0204999 0.0005 
70 1 0.000514874 0.0142352 0.0205 0.0005 
888 1 0.00392951 0.0152602 0.0204986 0.0005 
550 1 0.000672224 0.0191959 0.0205 0.0005 
1 1 0.00692179 0.0157224 0.0207504 0.00075 
529 1 0.00129153 0.0160722 0.0212501 0.00125 
269 1 0.00658347 0.018193 0.021253 0.00125 
19 1 0.00457119 0.0167041 0.0212481 0.00125 
1077 1 0.0061521 0.0166741 0.0204995 0.0005 
877 1 0.00781159 0.0204748 0.0205125 0.0005 
1060 1 0.00735864 0.0160176 0.0218941 0.0005 
1004 1 0.00488244 0.0193911 0.0207545 0.00075 
1570 1 0.00709166 0.019777 0.0205 0.0005 
688 1 0.000499996 0.0196756 0.0213603 0.0005 
896 1 0.00607007 0.0196871 0.0205001 0.0005 
1660 1 0.00437884 0.0182752 0.0205004 0.0005 
972 1 0.0060115 0.0155495 0.0220595 0.00075 
223 1 0.00263228 0.0189479 0.0217496 0.00175 
700 1 0.00442942 0.0208588 0.02075 0.00075 
1416 1 0.00251765 0.020825 0.0205 0.0005 
436 1 0.00614084 0.0167934 0.0222062 0.0005 
678 1 0.000999791 0.0211469 0.021 0.001 
315 1 0.00290909 0.0164847 0.0223803 0.00075 
600 1 0.00631701 0.0212197 0.0213084 0.00125 
748 1 0.00809207 0.0145004 0.0218159 0.0005 
1196 1 0.00802206 0.017049 0.0224178 0.0005 
695 1 0.00856706 0.014973 0.0207503 0.00075 
54 1 0.00835704 0.0166919 0.021 0.001 
786 1 0.0090307 0.0150618 0.0219128 0.0005 
180 1 0.00954087 0.0193137 0.0219997 0.002 
221 1 0.0107741 0.0160768 0.0214993 0.0015 
118 1 0.0133725 0.015207 0.0212499 0.00125 
717 1 0.0123002 0.0184993 0.0205 0.0005 
1232 1 0.00975499 0.0146762 0.0204998 0.0005 
934 1 0.013602 0.0195785 0.0207564 0.00075 
1310 1 0.0126467 0.0175585 0.0205 0.0005 
1212 1 0.0146145 0.018864 0.0205 0.0005 
838 1 0.0139523 0.0178117 0.0213734 0.001 
624 1 0.0124912 0.0165402 0.0205 0.0005 
1035 1 0.0112958 0.0180362 0.0205 0.0005 
43 1 0.0152335 0.0149076 0.0205 0.0005 
1592 1 0.0114951 0.0197608 0.020502 0.0005 
1577 1 0.0146753 0.0202372 0.0205 0.0005 
1636 1 0.0128165 0.021128 0.0210001 0.001 
982 1 0.015816 0.0210842 0.0205 0.0005 
1757 1 0.0146469 0.0199236 0.0220024 0.0005 
1842 1 0.0141736 0.0205221 0.0213481 0.0005 
1697 1 0.00854199 0.021162 0.0205 0.0005 
1765 1 0.0134297 0.0195526 0.0222665 0.00075 
1350 1 0.0144718 0.0212194 0.0205 0.0005 
2033 1 0.0122381 0.0194607 0.0216785 0.0005 
198 1 0.0161245 0.0193565 0.0212554 0.00125 
1338 1 0.0160311 0.0168652 0.0205142 0.0005 
345 1 0.0192713 0.0142664 0.0205 0.0005 
741 1 0.0181465 0.0150468 0.0214798 0.0005 
450 1 0.0181178 0.0147835 0.0205 0.0005 
189 1 0.0161465 0.0158271 0.0205 0.0005 
1311 1 0.0171955 0.0205581 0.0205 0.0005 
947 1 0.0176895 0.0191386 0.0205007 0.0005 
542 1 0.0182286 0.0162301 0.0218826 0.00075 
260 1 0.0177441 0.0176654 0.021 0.001 
591 1 0.0222598 0.0149553 0.0207505 0.00075 
465 1 0.0188755 0.0167325 0.0205 0.0005 
719 1 0.0190841 0.0155297 0.0207682 0.00075 
628 1 0.0234994 0.0162455 0.0205 0.0005 
42 1 0.0225383 0.0170059 0.0207499 0.00075 
747 1 0.0211216 0.0154067 0.0204999 0.0005 
813 1 0.0202142 0.0160406 0.0205 0.0005 
787 1 0.0191583 0.017738 0.0205 0.0005 
492 1 0.0199482 0.0170925 0.0205 0.0005 
238 1 0.0235 0.0177735 0.0205 0.0005 
1216 1 0.0196849 0.0165957 0.0216357 0.00075 
1230 1 0.017369 0.0157527 0.0207499 0.00075 
566 1 0.021111 0.017477 0.02075 0.00075 
1333 1 0.0215217 0.016323 0.0205 0.0005 
1091 1 0.0200785 0.0181365 0.0205 0.0005 
1398 1 0.0208536 0.0204483 0.0205001 0.0005 
1189 1 0.0234998 0.0143884 0.0214756 0.0005 
1427 1 0.0201966 0.015027 0.0204999 0.0005 
898 1 0.0195203 0.0180729 0.0215769 0.0005 
1253 1 0.0190844 0.0147758 0.0218137 0.0005 
1452 1 0.0203568 0.0193299 0.0207585 0.00075 
1488 1 0.0189018 0.0189616 0.0207556 0.00075 
1124 1 0.0234992 0.0151356 0.0208053 0.0005 
1137 1 0.0205036 0.0175177 0.0218417 0.0005 
1020 1 0.0224471 0.0191026 0.0215608 0.0015 
1401 1 0.02131 0.015922 0.0219298 0.001 
1298 1 0.0199884 0.0152248 0.0216794 0.0005 
1170 1 0.0232462 0.0159912 0.0216988 0.00075 
1831 1 0.0180251 0.0197628 0.0212369 0.0005 
1796 1 0.0196556 0.0190451 0.0217768 0.0005 
957 1 0.0234921 0.0204481 0.0205039 0.0005 
1320 1 0.0193045 0.0204307 0.02075 0.00075 
1598 1 0.0204521 0.0204437 0.0215907 0.0005 
1437 1 0.0234968 0.020781 0.021988 0.0005 
1184 1 0.0235 0.0174058 0.0214474 0.0005 
1738 1 0.0181562 0.0208583 0.0205 0.0005 
1692 1 0.0205336 0.0185572 0.0218444 0.0005 
1828 1 0.0187616 0.0199424 0.0218905 0.0005 
1105 1 0.021546 0.021171 0.0205001 0.0005 
1202 1 0.0214561 0.0208423 0.0215275 0.0005 
1293 1 0.00215874 0.0220783 0.0208047 0.0005 
482 1 0.000501418 0.0224723 0.0205 0.0005 
12 1 0.00106602 0.0235592 0.02075 0.00075 
952 1 0.00486394 0.0241803 0.0205004 0.0005 
1081 1 0.00737874 0.024639 0.0205 0.0005 
904 1 0.00568357 0.0247749 0.0205085 0.0005 
1439 1 0.0056083 0.0232031 0.02075 0.00075 
831 1 0.00350839 0.0247297 0.0209998 0.001 
534 1 0.000781059 0.0250323 0.02075 0.00075 
1423 1 0.00325703 0.0267677 0.0205 0.0005 
1406 1 0.00273587 0.0259143 0.0205 0.0005 
483 1 0.000503095 0.0265228 0.0205047 0.0005 
1394 1 0.00734006 0.0232018 0.0210143 0.001 
1483 1 0.00480924 0.022269 0.0205007 0.0005 
1512 1 0.00205599 0.0251957 0.0208462 0.0005 
752 1 0.00410506 0.026193 0.0205 0.0005 
919 1 0.0076044 0.0276376 0.0217499 0.00175 
1578 1 0.0025828 0.0226269 0.021948 0.0005 
978 1 0.0075933 0.0257152 0.0205 0.0005 
1805 1 0.0026499 0.0232259 0.0207498 0.00075 
1576 1 0.000502562 0.0260794 0.0214097 0.0005 
1373 1 0.00503946 0.0256677 0.0211472 0.00075 
1860 1 0.00366222 0.0224339 0.0205 0.0005 
946 1 0.00597191 0.0244473 0.0224292 0.00125 
1650 1 0.0063872 0.0227388 0.0221994 0.0005 
1625 1 0.000501897 0.0234774 0.0218641 0.0005 
1455 1 0.00128486 0.0252778 0.022416 0.001 
1942 1 0.00371299 0.0221068 0.0221647 0.00075 
338 1 0.00176955 0.0279072 0.0217564 0.00175 
1698 1 0.00778066 0.0249658 0.0216424 0.00075 
1682 1 0.00775556 0.0215659 0.0222691 0.0005 
991 1 0.00472368 0.0283195 0.0212499 0.00125 
1264 1 0.00987847 0.021288 0.0205006 0.0005 
1164 1 0.0110894 0.0214576 0.020765 0.00075 
1144 1 0.0085583 0.021603 0.0216739 0.0005 
780 1 0.0124727 0.0231585 0.0205 0.0005 
353 1 0.0142023 0.0235522 0.0205005 0.0005 
1294 1 0.0101991 0.023403 0.0205031 0.0005 
1180 1 0.0103269 0.0224115 0.0204998 0.0005 
1208 1 0.00874294 0.0252399 0.0205 0.0005 
1462 1 0.0116357 0.0237056 0.0204999 0.0005 
1467 1 0.0119933 0.02228 0.0205 0.0005 
1343 1 0.00911516 0.0222453 0.0207573 0.00075 
1552 1 0.0111478 0.0228861 0.0213249 0.00075 
1563 1 0.0159369 0.0244542 0.0205 0.0005 
1602 1 0.0126544 0.0253477 0.0205 0.0005 
1621 1 0.0130484 0.0241701 0.0209569 0.00075 
861 1 0.0144027 0.024805 0.02075 0.00075 
1643 1 0.00889766 0.0262811 0.0205 0.0005 
1539 1 0.0132139 0.0224871 0.0205 0.0005 
1330 1 0.0148286 0.0240529 0.0216537 0.0005 
1192 1 0.0150094 0.0259023 0.0205 0.0005 
1041 1 0.0106621 0.0250707 0.02159 0.0015 
1614 1 0.00890947 0.0239318 0.0207508 0.00075 
1775 1 0.0150133 0.0230996 0.0211465 0.0005 
1693 1 0.0141671 0.022184 0.0205021 0.0005 
1618 1 0.00878319 0.0257425 0.021442 0.0005 
1221 1 0.0138012 0.0230094 0.0215534 0.00075 
1915 1 0.0136472 0.0262478 0.0205065 0.0005 
1017 1 0.0159556 0.022352 0.0207546 0.00075 
1869 1 0.00980138 0.0267235 0.0205 0.0005 
1601 1 0.0107322 0.0217873 0.0222815 0.00075 
1655 1 0.00922078 0.0231577 0.0222955 0.001 
984 1 0.0125028 0.0274375 0.0216868 0.0015 
1659 1 0.0154974 0.0213361 0.022151 0.001 
2004 1 0.0159706 0.0269072 0.0223232 0.0005 
1755 1 0.0131656 0.0216402 0.0223677 0.0005 
144 1 0.0164756 0.0259812 0.0209998 0.001 
152 1 0.0204378 0.0243997 0.0205 0.0005 
1292 1 0.0190157 0.0240612 0.0207627 0.00075 
512 1 0.0217821 0.0280983 0.0205 0.0005 
862 1 0.0172415 0.0278419 0.020514 0.0005 
1288 1 0.017836 0.0218296 0.0205538 0.0005 
1048 1 0.0203448 0.0215608 0.0207582 0.00075 
1415 1 0.0215135 0.022342 0.0205 0.0005 
1087 1 0.0234992 0.0261138 0.0205 0.0005 
1176 1 0.0199376 0.0262772 0.02075 0.00075 
1269 1 0.0231915 0.0234172 0.02075 0.00075 
1507 1 0.0234996 0.0265444 0.0214034 0.0005 
1574 1 0.0235 0.0271138 0.0205 0.0005 
1472 1 0.0232175 0.024917 0.0207509 0.00075 
1590 1 0.0219477 0.0244475 0.0205 0.0005 
1634 1 0.0201854 0.0231222 0.0207647 0.00075 
908 1 0.0219249 0.0234423 0.0210587 0.0005 
1219 1 0.0228491 0.0217196 0.021002 0.001 
1870 1 0.0161397 0.0282572 0.0210656 0.00075 
1646 1 0.0191236 0.0217686 0.0205353 0.0005 
1927 1 0.0192202 0.0267721 0.0216517 0.0005 
1897 1 0.0196283 0.0248872 0.0218943 0.00075 
1370 1 0.0232476 0.0281347 0.021176 0.00075 
1648 1 0.017922 0.0216258 0.0223049 0.00125 
1243 1 0.0217539 0.025984 0.0216102 0.00125 
1978 1 0.0188425 0.025707 0.0209631 0.0005 
1460 1 0.0227652 0.0213876 0.0224821 0.0005 
1881 1 0.0187889 0.0260173 0.0221491 0.0005 
1514 1 0.0211885 0.0223733 0.0223793 0.00125 
1753 1 0.0162922 0.023649 0.0223865 0.0005 
1925 1 0.0211313 0.0243871 0.0223542 0.0005 
162 1 0.000532859 0.0319414 0.0205 0.0005 
259 1 0.00173332 0.0328151 0.0205 0.0005 
522 1 0.000751698 0.0335476 0.02075 0.00075 
672 1 0.00585049 0.034808 0.02075 0.00075 
348 1 0.00214848 0.0298585 0.0205 0.0005 
337 1 0.00294727 0.0330688 0.0207735 0.00075 
897 1 0.000508414 0.0348055 0.0205 0.0005 
980 1 0.00673437 0.0293824 0.0205 0.0005 
638 1 0.00411285 0.0346013 0.0207498 0.00075 
925 1 0.00574178 0.0319991 0.0212499 0.00125 
1103 1 0.00570428 0.0296315 0.0205 0.0005 
506 1 0.000500692 0.0341373 0.0218235 0.0005 
1480 1 0.00741813 0.0310297 0.02075 0.00075 
1084 1 0.00212495 0.0314002 0.02075 0.00075 
1355 1 0.00207528 0.0339271 0.0205 0.0005 
1143 1 0.00346463 0.0297908 0.02075 0.00075 
1451 1 0.00459621 0.0301906 0.0214029 0.0005 
412 1 0.00104666 0.0328322 0.0223239 0.001 
1285 1 0.000941532 0.0303053 0.0210179 0.00075 
1607 1 0.00226237 0.0304124 0.0215988 0.0005 
1529 1 0.00480456 0.0341555 0.022063 0.00075 
505 1 0.00923198 0.0311226 0.0205017 0.0005 
261 1 0.0136039 0.0336933 0.0220949 0.0005 
886 1 0.00907156 0.0331138 0.0205 0.0005 
138 1 0.00810883 0.0298671 0.0207615 0.0005 
1249 1 0.0146746 0.0318464 0.0207498 0.00075 
1154 1 0.0116276 0.034029 0.0205 0.0005 
609 1 0.0124421 0.0333127 0.0205 0.0005 
1134 1 0.00909891 0.0343558 0.02075 0.00075 
1340 1 0.0103337 0.0350195 0.0205081 0.0005 
1678 1 0.013734 0.0341647 0.0205 0.0005 
924 1 0.0124938 0.0345851 0.0205215 0.0005 
1762 1 0.0132132 0.0345997 0.0213186 0.0005 
1703 1 0.0142259 0.0305479 0.0205 0.0005 
1095 1 0.014648 0.0342824 0.0208883 0.0005 
1872 1 0.0105343 0.0320783 0.0212499 0.00125 
1167 1 0.0155127 0.0346725 0.0205061 0.0005 
1815 1 0.0103774 0.0345797 0.0214258 0.0005 
1348 1 0.0152357 0.0305911 0.0205001 0.0005 
1594 1 0.0149758 0.0352123 0.0211839 0.0005 
1935 1 0.00981433 0.0307539 0.022143 0.0005 
1943 1 0.0122456 0.032213 0.0207399 0.0005 
2018 1 0.012753 0.0353759 0.0218652 0.0005 
1786 1 0.01742 0.028381 0.0215775 0.0005 
1409 1 0.018286 0.0289379 0.0205107 0.0005 
1106 1 0.0199053 0.02867 0.0212499 0.00125 
1113 1 0.0190925 0.0304277 0.02075 0.00075 
1361 1 0.01698 0.0294615 0.02075 0.00075 
1044 1 0.0217929 0.0303266 0.0212498 0.00125 
557 1 0.0206759 0.034142 0.0212499 0.00125 
1015 1 0.0226166 0.028976 0.0205002 0.0005 
698 1 0.0164099 0.0309531 0.0207663 0.00075 
304 1 0.022489 0.0317472 0.0205 0.0005 
1083 1 0.0161111 0.0331636 0.0212529 0.00125 
1142 1 0.0223956 0.0345683 0.0205 0.0005 
1335 1 0.017607 0.0326559 0.0205 0.0005 
1273 1 0.0229922 0.0346982 0.0212919 0.0005 
1414 1 0.0235 0.034359 0.0205 0.0005 
1016 1 0.0232265 0.0327455 0.020751 0.00075 
959 1 0.019098 0.0348355 0.0205054 0.0005 
1531 1 0.019493 0.0328807 0.0205 0.0005 
1329 1 0.0235 0.0294842 0.0205 0.0005 
1318 1 0.0210297 0.0323101 0.0205 0.0005 
1305 1 0.0198641 0.031714 0.0207518 0.00075 
1258 1 0.0234615 0.0304878 0.0205 0.0005 
1695 1 0.0184629 0.0336938 0.0212531 0.001 
1224 1 0.0180645 0.0315201 0.0207513 0.00075 
878 1 0.0232494 0.0333164 0.0221392 0.00075 
1213 1 0.0219161 0.0324036 0.0214005 0.00075 
1323 1 0.0219882 0.0285386 0.0214572 0.0005 
1447 1 0.018651 0.0308013 0.022138 0.00075 
1603 1 0.0178728 0.0302914 0.0210353 0.0005 
1403 1 0.0200331 0.0306658 0.0215524 0.0005 
1445 1 0.0234997 0.0315055 0.0206816 0.0005 
1544 1 0.0170229 0.0353177 0.0221632 0.00125 
1362 1 0.02325 0.0317818 0.0219028 0.00075 
1093 1 0.0170812 0.0313104 0.0221178 0.00075 
1442 1 0.020829 0.0295097 0.0224834 0.0005 
1626 1 0.0178302 0.0323129 0.0218494 0.0005 
1073 1 0.00514086 0.0364597 0.02075 0.00075 
249 1 0.0020375 0.0361019 0.0220027 0.002 
960 1 0.00663787 0.0365745 0.02075 0.00075 
535 1 0.000500686 0.0378336 0.0205 0.0005 
844 1 0.00396153 0.0367904 0.0205 0.0005 
60 1 0.00489855 0.0387472 0.0217499 0.00175 
451 1 0.000755667 0.0413415 0.02075 0.00075 
366 1 0.00148045 0.0380379 0.0205 0.0005 
680 1 0.00262273 0.0384797 0.0207501 0.00075 
519 1 0.000522437 0.04255 0.0205 0.0005 
733 1 0.00218679 0.0416286 0.0205 0.0005 
1108 1 0.000762929 0.0390942 0.02075 0.00075 
615 1 0.00580254 0.0407158 0.0205 0.0005 
1186 1 0.0028849 0.0424582 0.0205 0.0005 
316 1 0.000505264 0.038091 0.0214694 0.0005 
1276 1 0.00261802 0.0402123 0.0209999 0.001 
1177 1 0.00432117 0.0416619 0.02125 0.00125 
1372 1 0.00764722 0.0389643 0.0219856 0.00075 
949 1 0.00695774 0.0397526 0.02075 0.00075 
1301 1 0.00626078 0.0421702 0.02075 0.00075 
1191 1 0.00100037 0.0403166 0.0221732 0.001 
91 1 0.00719098 0.0382138 0.02075 0.00075 
1537 1 0.00226292 0.0418511 0.021772 0.00075 
1497 1 0.000754348 0.0423909 0.0218286 0.00075 
682 1 0.00761284 0.0420922 0.0205 0.0005 
1674 1 0.00719819 0.0371853 0.0220008 0.00075 
626 1 0.00862363 0.0405351 0.02075 0.00075 
1353 1 0.0099913 0.0371269 0.0215035 0.0005 
1419 1 0.0124364 0.0365498 0.02075 0.00075 
640 1 0.00972608 0.0361225 0.02075 0.00075 
514 1 0.00972259 0.0418307 0.0204999 0.0005 
641 1 0.0103626 0.0405496 0.0209999 0.001 
1019 1 0.0145146 0.0368428 0.0205 0.0005 
669 1 0.00908625 0.0386257 0.0209999 0.001 
835 1 0.00867124 0.0372731 0.0205 0.0005 
802 1 0.0126719 0.0413431 0.02075 0.00075 
1043 1 0.0144123 0.0405781 0.0209998 0.001 
1107 1 0.0109864 0.0369375 0.02075 0.00075 
901 1 0.0108069 0.038427 0.02075 0.00075 
1149 1 0.0138673 0.0356294 0.0207526 0.00075 
1482 1 0.0120021 0.039945 0.020896 0.00075 
1265 1 0.0124482 0.0387971 0.0205 0.0005 
1705 1 0.0134305 0.0380937 0.0205 0.0005 
1716 1 0.0155411 0.041442 0.0205031 0.0005 
912 1 0.00883795 0.0364751 0.0222206 0.001 
1346 1 0.0120724 0.0380059 0.0214362 0.00075 
1741 1 0.0111496 0.0407929 0.0222535 0.0005 
1484 1 0.0111476 0.0422558 0.0219124 0.001 
1743 1 0.0159441 0.039349 0.0214083 0.001 
621 1 0.0092462 0.0418544 0.0216552 0.00075 
1661 1 0.0121069 0.0410991 0.0218379 0.0005 
1487 1 0.0117272 0.0421441 0.0205 0.0005 
1644 1 0.00860818 0.0418211 0.0205 0.0005 
1572 1 0.0109022 0.0389112 0.0224296 0.001 
328 1 0.0105798 0.0423574 0.0205089 0.0005 
1131 1 0.0146843 0.0420017 0.0205 0.0005 
1622 1 0.0135075 0.0421767 0.0220438 0.001 
1181 1 0.0156337 0.0362153 0.02075 0.00075 
2032 1 0.0144461 0.0392765 0.0223113 0.00075 
986 1 0.0188926 0.0355752 0.0215013 0.00075 
889 1 0.023499 0.0354802 0.0208601 0.0005 
1145 1 0.0175381 0.0366366 0.02075 0.00075 
1120 1 0.0201719 0.0360117 0.02075 0.00075 
909 1 0.0233665 0.0364161 0.0205 0.0005 
268 1 0.0168238 0.0385423 0.0204999 0.0005 
1278 1 0.0192347 0.0395036 0.0205 0.0005 
1033 1 0.0190882 0.0390047 0.0221883 0.001 
1307 1 0.0202154 0.0372361 0.0205 0.0005 
1018 1 0.0183011 0.0398653 0.0205 0.0005 
973 1 0.0196109 0.0408759 0.0205 0.0005 
1148 1 0.0174237 0.0384889 0.0212998 0.0005 
990 1 0.0220259 0.0359524 0.0209997 0.001 
1003 1 0.0199219 0.0384254 0.02075 0.00075 
374 1 0.0232384 0.0389238 0.0207497 0.00075 
394 1 0.0176483 0.0391082 0.0205 0.0005 
326 1 0.0234999 0.0401229 0.0205 0.0005 
650 1 0.0212777 0.040057 0.0214999 0.0015 
848 1 0.02132 0.0377649 0.02075 0.00075 
993 1 0.0234988 0.0411312 0.0205 0.0005 
996 1 0.0175689 0.0378672 0.0205 0.0005 
892 1 0.0188366 0.0373882 0.0207499 0.00075 
856 1 0.0163882 0.0375444 0.0205 0.0005 
1261 1 0.0234999 0.0374083 0.0205 0.0005 
1117 1 0.0205231 0.0416183 0.0205 0.0005 
1268 1 0.0225434 0.0377022 0.0205 0.0005 
1135 1 0.0217207 0.0421394 0.02075 0.00075 
1422 1 0.0177985 0.0411875 0.0209999 0.001 
1663 1 0.0182917 0.0367201 0.02175 0.0005 
1062 1 0.023241 0.0423113 0.0208314 0.00075 
1559 1 0.0186482 0.0386952 0.0206632 0.0005 
1709 1 0.0165221 0.0418296 0.0205 0.0005 
1051 1 0.0195489 0.0372647 0.0220641 0.00075 
1165 1 0.0207353 0.0363456 0.0221149 0.00075 
1506 1 0.0175534 0.0374988 0.0216739 0.0005 
1802 1 0.016042 0.0373714 0.021422 0.0005 
1431 1 0.0203637 0.042128 0.021632 0.00075 
1747 1 0.0176867 0.038306 0.0222547 0.0005 
1882 1 0.016288 0.0407643 0.0205518 0.0005 
1549 1 0.0234881 0.0361091 0.0216449 0.0005 
1023 1 0.0195333 0.0418782 0.0205 0.0005 
876 1 0.0227443 0.0376861 0.0222405 0.00125 
981 1 0.0233531 0.0407899 0.0215924 0.0005 
1746 1 0.0160197 0.0414664 0.0219294 0.001 
1011 1 0.0234809 0.0397274 0.0217719 0.0005 
247 1 0.00171482 0.0429418 0.02075 0.00075 
309 1 0.00538504 0.0430269 0.0205 0.0005 
554 1 0.000502172 0.0440089 0.0205 0.0005 
1215 1 0.0024104 0.0442177 0.020707 0.0005 
570 1 0.00315252 0.0435254 0.0205772 0.0005 
668 1 0.000583462 0.0450786 0.0205 0.0005 
386 1 0.00144233 0.0443599 0.0205 0.0005 
433 1 0.00313655 0.0448741 0.0205 0.0005 
584 1 0.00520736 0.045932 0.02075 0.00075 
242 1 0.00672462 0.0468395 0.0205 0.0005 
814 1 0.00171917 0.0489894 0.0207613 0.00075 
987 1 0.00399832 0.0461897 0.0205 0.0005 
762 1 0.000508286 0.0491934 0.0205011 0.0005 
1387 1 0.00541764 0.0477823 0.0209999 0.001 
236 1 0.00200247 0.0465495 0.0219998 0.002 
1432 1 0.00490014 0.0439165 0.0205021 0.0005 
1357 1 0.00692737 0.0442685 0.0205 0.0005 
1351 1 0.00384596 0.0449538 0.02133 0.0005 
1378 1 0.00403202 0.0444284 0.0204999 0.0005 
1853 1 0.001127 0.0496108 0.0216988 0.0005 
1909 1 0.00701579 0.047047 0.0216178 0.0005 
608 1 0.000516738 0.0483201 0.0210271 0.0005 
1930 1 0.00789686 0.0466887 0.0213087 0.0005 
1635 1 0.00279398 0.0434055 0.0218989 0.00075 
1571 1 0.012631 0.0429707 0.02075 0.00075 
533 1 0.0085102 0.0430431 0.02075 0.00075 
1100 1 0.00973215 0.0466362 0.0207678 0.00075 
40 1 0.00978173 0.0496236 0.0205 0.0005 
883 1 0.0141476 0.048084 0.0204994 0.0005 
453 1 0.0122613 0.048744 0.0220001 0.002 
1194 1 0.0135293 0.0457959 0.0205002 0.0005 
1240 1 0.0146857 0.0453158 0.0207497 0.00075 
1701 1 0.013744 0.0441074 0.0207538 0.00075 
1713 1 0.0110058 0.0434548 0.0205083 0.0005 
1766 1 0.0149398 0.0490069 0.0214155 0.00075 
1777 1 0.00885652 0.044693 0.0208082 0.00075 
1486 1 0.0112788 0.0448956 0.0207515 0.00075 
1807 1 0.0123119 0.0465908 0.0205 0.0005 
1481 1 0.0153447 0.0432571 0.0225141 0.001 
985 1 0.0147476 0.0466702 0.0205 0.0005 
1864 1 0.013942 0.0464717 0.0214678 0.00075 
1188 1 0.0147204 0.0474447 0.0213331 0.0005 
1319 1 0.015116 0.0478375 0.0204998 0.0005 
1889 1 0.0124706 0.0444199 0.0205011 0.0005 
1652 1 0.0151395 0.046354 0.0218058 0.0005 
1511 1 0.0126751 0.0457829 0.0210299 0.0005 
1688 1 0.012009 0.0439852 0.0212799 0.0005 
1297 1 0.0157397 0.0429329 0.0207602 0.00075 
969 1 0.0157681 0.048805 0.0205 0.0005 
1948 1 0.00923561 0.0483413 0.0216144 0.00075 
1494 1 0.015662 0.0477656 0.0220944 0.00075 
1600 1 0.0117956 0.0454189 0.0217634 0.0005 
1548 1 0.0155253 0.0449681 0.021608 0.0005 
1689 1 0.012873 0.0461378 0.0220795 0.0005 
1788 1 0.0130187 0.0448721 0.0218384 0.00075 
1608 1 0.0103678 0.0443025 0.0224359 0.00125 
1546 1 0.0168329 0.042676 0.0214585 0.0005 
1133 1 0.0163677 0.0446191 0.02075 0.00075 
499 1 0.0177161 0.049057 0.02125 0.00125 
804 1 0.0234652 0.0435516 0.0205 0.0005 
970 1 0.0229455 0.0480103 0.02075 0.00075 
1097 1 0.0159256 0.0462506 0.02075 0.00075 
1155 1 0.0182648 0.0467477 0.0205 0.0005 
1271 1 0.0224417 0.0432148 0.0205 0.0005 
1289 1 0.0175405 0.0474564 0.0205 0.0005 
1334 1 0.0172174 0.0427657 0.0205006 0.0005 
917 1 0.0232279 0.0494849 0.0207676 0.00075 
963 1 0.019575 0.0466569 0.0205 0.0005 
1299 1 0.017927 0.0455482 0.0207531 0.00075 
1411 1 0.0172638 0.047097 0.0217572 0.00075 
1426 1 0.0163326 0.0477027 0.0207498 0.00075 
847 1 0.0231614 0.0465755 0.0211484 0.00075 
1088 1 0.0190128 0.0472855 0.0217454 0.001 
927 1 0.0187244 0.0432303 0.0212614 0.00125 
1430 1 0.016634 0.0436542 0.0215234 0.0005 
1855 1 0.0215236 0.0441718 0.0216488 0.00125 
1444 1 0.0169304 0.0459059 0.0214544 0.0005 
1951 1 0.0215233 0.0468182 0.02075 0.00075 
1632 1 0.0174403 0.0447473 0.0223296 0.001 
1671 1 0.0200121 0.0459105 0.022257 0.0005 
1728 1 0.0173904 0.042889 0.0223712 0.0005 
2029 1 0.020865 0.0480115 0.0215304 0.0005 
1030 1 0.00459926 0.0497008 0.0205158 0.0005 
920 1 0.00329678 0.0499507 0.022061 0.0015 
1390 1 0.00208333 0.0505527 0.0205 0.0005 
579 1 0.000752128 0.0503948 0.02075 0.00075 
1242 1 0.00392464 0.0510442 0.0205023 0.0005 
1596 1 0.000500454 0.0516597 0.0210305 0.0005 
423 1 0.00205731 0.0520198 0.0209998 0.001 
347 1 0.00509345 0.0514138 0.0207631 0.00075 
1251 1 0.00347076 0.0519362 0.0205 0.0005 
855 1 0.00432733 0.0524908 0.0205 0.0005 
712 1 0.00591426 0.0528531 0.02075 0.00075 
543 1 0.00124983 0.0541058 0.0212499 0.00125 