ITEM: TIMESTEP
200000
ITEM: NUMBER OF ATOMS
1850
ITEM: BOX BOUNDS mm mm mm
-2.4e-06 0.0240024
-7.8e-06 0.0780078
-3e-06 0.030003
ITEM: ATOMS id type x y z radius 
324 1 0.00767146 0.00383293 0.0219998 0.002 
291 1 0.00259606 0.00150006 0.0214999 0.0015 
368 1 0.000508719 0.00119312 0.0205 0.0005 
784 1 0.00534808 0.00304154 0.02075 0.00075 
32 1 0.00524901 0.000499997 0.0205 0.0005 
241 1 0.00429106 0.00220588 0.0205 0.0005 
815 1 0.000949231 0.00209085 0.0205 0.0005 
448 1 0.00359032 0.00291975 0.0205 0.0005 
300 1 0.000499998 0.000499983 0.0212207 0.0005 
442 1 0.00102733 0.00350431 0.021 0.001 
816 1 0.00573006 0.00500544 0.0205 0.0005 
710 1 0.00401175 0.00050011 0.0205 0.0005 
527 1 0.000499389 0.00483355 0.0204999 0.0005 
256 1 0.000500317 0.0058355 0.0204999 0.0005 
870 1 0.00764295 0.00583461 0.0205 0.0005 
100 1 0.00434575 0.00248954 0.0214573 0.0005 
153 1 0.00461123 0.00127776 0.0206899 0.0005 
486 1 0.00360343 0.00503388 0.0222597 0.00225 
722 1 0.00149439 0.00492513 0.0204995 0.0005 
864 1 0.00437323 0.000554961 0.0214307 0.0005 
503 1 0.000499974 0.00473526 0.0216756 0.0005 
561 1 0.00581337 0.00161523 0.02075 0.00075 
501 1 0.00578314 0.000509703 0.0213453 0.0005 
64 1 0.0063121 0.00631313 0.0209998 0.001 
954 1 0.00631952 0.000499983 0.0205 0.0005 
274 1 0.00762464 0.00688207 0.0205001 0.0005 
75 1 0.00149849 0.00654536 0.0207496 0.00075 
1195 1 0.00775288 0.00134081 0.021822 0.0005 
390 1 0.000499955 0.00571837 0.021493 0.0005 
842 1 0.00623787 0.00583778 0.0224206 0.0005 
887 1 0.00649282 0.00695227 0.0223577 0.0005 
380 1 0.00506961 0.00698939 0.0205 0.0005 
998 1 0.00100944 0.0066414 0.0221644 0.00075 
121 1 0.00852948 0.00645449 0.0205 0.0005 
228 1 0.00886307 0.00551148 0.0205 0.0005 
490 1 0.00967105 0.00413241 0.0205 0.0005 
199 1 0.0116741 0.00268883 0.0205 0.0005 
395 1 0.0107188 0.00239288 0.0205 0.0005 
474 1 0.0137779 0.00141316 0.0207498 0.00075 
282 1 0.0108277 0.0013885 0.0205001 0.0005 
590 1 0.0103671 0.000500044 0.0205 0.0005 
176 1 0.0128373 0.000513714 0.0205 0.0005 
289 1 0.011367 0.000499848 0.0204998 0.0005 
362 1 0.00936762 0.000529205 0.0204999 0.0005 
370 1 0.008004 0.0007499 0.0207498 0.00075 
783 1 0.0106631 0.0036826 0.0205001 0.0005 
51 1 0.0130722 0.0026179 0.0205 0.0005 
233 1 0.00966257 0.00176597 0.0207499 0.00075 
217 1 0.010533 0.00467413 0.0205 0.0005 
636 1 0.0119 0.00600906 0.0205 0.0005 
549 1 0.0100969 0.00446994 0.0213765 0.0005 
126 1 0.0122733 0.00431781 0.021502 0.0015 
307 1 0.00831599 0.00193598 0.0205 0.0005 
676 1 0.0102017 0.000750475 0.021751 0.00075 
209 1 0.0138128 0.00551128 0.0205 0.0005 
730 1 0.00865134 0.00159608 0.0214648 0.0005 
764 1 0.0102936 0.00623709 0.0212499 0.00125 
311 1 0.0136343 0.00639633 0.0217798 0.001 
192 1 0.0150343 0.00612801 0.02075 0.00075 
763 1 0.00948045 0.00297929 0.0205001 0.0005 
66 1 0.0140085 0.00452496 0.0205 0.0005 
61 1 0.0146477 0.00487468 0.0211953 0.0005 
108 1 0.0147266 0.00310124 0.0212499 0.00125 
581 1 0.0119717 0.00640307 0.0223268 0.00075 
89 1 0.00901818 0.000499983 0.0214364 0.0005 
155 1 0.0120482 0.00152011 0.0217475 0.00125 
178 1 0.0151229 0.000749769 0.0207498 0.00075 
364 1 0.0102574 0.00301881 0.0214787 0.00075 
161 1 0.02325 0.000749863 0.02075 0.00075 
159 1 0.0227651 0.00337427 0.0204998 0.0005 
204 1 0.0235003 0.00405181 0.0204996 0.0005 
219 1 0.0213982 0.000999753 0.0209996 0.001 
333 1 0.0232503 0.0038662 0.0217097 0.00075 
142 1 0.0232499 0.00224971 0.02075 0.00075 
200 1 0.0202546 0.00288396 0.02075 0.00075 
340 1 0.0220904 0.0044089 0.0207499 0.00075 
452 1 0.0234998 0.00505165 0.0205003 0.0005 
518 1 0.0194179 0.00148204 0.02075 0.00075 
185 1 0.0165076 0.0048555 0.021251 0.00125 
31 1 0.017106 0.00150179 0.0215 0.0015 
123 1 0.0228032 0.0010071 0.0224226 0.001 
273 1 0.0218163 0.00287656 0.0215492 0.001 
113 1 0.0175176 0.0034889 0.0205 0.0005 
544 1 0.0187375 0.00456808 0.0209999 0.001 
577 1 0.0232501 0.00564923 0.0215691 0.00075 
652 1 0.0180465 0.00563798 0.0217923 0.0005 
290 1 0.0187549 0.00283621 0.0207499 0.00075 
281 1 0.0201016 0.00388168 0.0218595 0.00075 
190 1 0.0178032 0.00629422 0.02075 0.00075 
57 1 0.0207106 0.00601824 0.0215034 0.0015 
143 1 0.0225754 0.00574096 0.0205 0.0005 
853 1 0.0189817 0.00596137 0.0204999 0.0005 
106 1 0.0223132 0.0048841 0.0218843 0.0005 
1012 1 0.0186241 0.00678594 0.0219078 0.00075 
109 1 0.0191144 0.00695337 0.0205 0.0005 
1359 1 0.00295586 0.00710195 0.0205 0.0005 
588 1 0.00407498 0.00709359 0.0204999 0.0005 
360 1 0.00616836 0.0123154 0.0205 0.0005 
154 1 0.00471387 0.0081618 0.0207499 0.00075 
13 1 0.00049935 0.00725234 0.0204998 0.0005 
879 1 0.00612242 0.00788775 0.0205 0.0005 
137 1 0.00071188 0.00822894 0.0204997 0.0005 
44 1 0.00514138 0.00978257 0.02075 0.00075 
401 1 0.0058911 0.0115254 0.0221181 0.00125 
1166 1 0.00558596 0.00765336 0.0218592 0.00075 
1234 1 0.00525356 0.00902946 0.0217413 0.0005 
323 1 0.00247669 0.00912467 0.0220266 0.002 
820 1 0.000499529 0.00920569 0.0204996 0.0005 
1067 1 0.00710167 0.0127246 0.0205 0.0005 
713 1 0.00244885 0.0111084 0.0205 0.0005 
881 1 0.000504122 0.0102054 0.0204999 0.0005 
911 1 0.00430813 0.0108177 0.0223543 0.0005 
943 1 0.00326113 0.0117208 0.0205 0.0005 
673 1 0.00424325 0.0109846 0.02075 0.00075 
174 1 0.00100258 0.0115284 0.021 0.001 
447 1 0.00603978 0.00890948 0.0205 0.0005 
1070 1 0.00754795 0.00736765 0.0216494 0.00075 
737 1 0.00512198 0.0125411 0.0205 0.0005 
646 1 0.00149377 0.0130742 0.0205 0.0005 
508 1 0.000502472 0.012895 0.0205 0.0005 
611 1 0.00750994 0.0137281 0.0205 0.0005 
70 1 0.000504573 0.0139037 0.0205 0.0005 
35 1 0.00782793 0.00959095 0.0218484 0.0015 
872 1 0.00734871 0.0114948 0.0207496 0.00075 
439 1 0.00593162 0.0139417 0.0212499 0.00125 
891 1 0.00711898 0.00799048 0.0205 0.0005 
427 1 0.00445998 0.00764434 0.0224029 0.0005 
171 1 0.0123534 0.00714841 0.0207499 0.00075 
275 1 0.0131406 0.00842497 0.02075 0.00075 
46 1 0.00869325 0.00772702 0.0207499 0.00075 
556 1 0.012751 0.0100792 0.02075 0.00075 
287 1 0.0112197 0.0105991 0.0205 0.0005 
865 1 0.0137861 0.0116585 0.0205 0.0005 
756 1 0.0109829 0.00888657 0.0215065 0.0015 
318 1 0.0129187 0.00794664 0.0221623 0.00075 
686 1 0.00928213 0.00925693 0.0205 0.0005 
10 1 0.014573 0.00891764 0.0213408 0.0005 
569 1 0.0118484 0.0107758 0.0212622 0.0005 
252 1 0.00846716 0.0109901 0.0205 0.0005 
188 1 0.0147748 0.013085 0.0214999 0.0015 
772 1 0.01181 0.0114229 0.0205 0.0005 
709 1 0.00958048 0.0104728 0.0207488 0.00075 
1061 1 0.0107898 0.0115118 0.0205 0.0005 
110 1 0.0125707 0.0121605 0.0205 0.0005 
1118 1 0.0096462 0.0104217 0.0220086 0.0005 
59 1 0.011316 0.0124068 0.0205 0.0005 
974 1 0.0119711 0.0132277 0.0205 0.0005 
734 1 0.0119265 0.012053 0.0215741 0.00075 
968 1 0.0112573 0.0109551 0.0223489 0.00075 
62 1 0.00934819 0.0129096 0.0219991 0.002 
1238 1 0.0094189 0.00766381 0.0217657 0.0005 
1028 1 0.0126894 0.0101586 0.0222468 0.00075 
1653 1 0.013366 0.00923104 0.0217049 0.0005 
714 1 0.0161518 0.0120335 0.0205002 0.0005 
80 1 0.0162144 0.0105993 0.0209999 0.001 
342 1 0.0168371 0.011832 0.022075 0.00075 
319 1 0.0216028 0.00750028 0.0204999 0.0005 
6 1 0.0230001 0.00728532 0.0210008 0.001 
293 1 0.0189735 0.0105637 0.0217501 0.00175 
735 1 0.0211933 0.0103163 0.0214738 0.0005 
308 1 0.020846 0.00869473 0.021 0.001 
49 1 0.0179815 0.00895436 0.0205 0.0005 
146 1 0.0198824 0.00759439 0.0205 0.0005 
578 1 0.023 0.00928532 0.0209999 0.001 
139 1 0.0172216 0.0132063 0.0210017 0.001 
90 1 0.0193382 0.00808007 0.0216433 0.00075 
71 1 0.0210012 0.0101173 0.0205 0.0005 
659 1 0.0181805 0.00774591 0.02075 0.00075 
967 1 0.0172636 0.00965049 0.0205 0.0005 
130 1 0.0219222 0.0119822 0.0205 0.0005 
41 1 0.0221067 0.0107693 0.02075 0.00075 
231 1 0.0235 0.0107936 0.0205 0.0005 
279 1 0.0234992 0.00828179 0.0220047 0.0005 
693 1 0.0217499 0.00772407 0.0217042 0.0005 
725 1 0.02325 0.0112223 0.0216525 0.00075 
697 1 0.0209305 0.0111152 0.0205 0.0005 
330 1 0.023071 0.0124068 0.0207499 0.00075 
78 1 0.0231989 0.0136246 0.0205 0.0005 
741 1 0.018351 0.0140469 0.02153 0.0005 
800 1 0.020559 0.0120442 0.0205 0.0005 
538 1 0.0234769 0.0127006 0.0220031 0.0005 
1236 1 0.019471 0.0127388 0.0214587 0.0005 
812 1 0.022453 0.0120811 0.0221894 0.0005 
944 1 0.0234864 0.0135955 0.0215291 0.0005 
794 1 0.0185154 0.0129118 0.0217053 0.0005 
592 1 0.0183194 0.012316 0.0204998 0.0005 
910 1 0.0217848 0.00949403 0.0222418 0.00075 
450 1 0.0183188 0.0140977 0.0205 0.0005 
523 1 0.0187753 0.0132066 0.0205 0.0005 
956 1 0.0196937 0.0125461 0.0205007 0.0005 
350 1 0.0213112 0.0136052 0.0214998 0.0015 
1193 1 0.0193002 0.0137312 0.0214556 0.0005 
345 1 0.0195885 0.0137896 0.0204999 0.0005 
888 1 0.00381108 0.0144094 0.0205 0.0005 
695 1 0.00780907 0.014917 0.0207508 0.00075 
550 1 0.000553504 0.0192112 0.0205 0.0005 
1 1 0.00648505 0.0157967 0.0207502 0.00075 
529 1 0.00126444 0.0157802 0.02125 0.00125 
269 1 0.00581497 0.0179232 0.0215112 0.00125 
19 1 0.0039766 0.016118 0.0212496 0.00125 
1077 1 0.00550362 0.016529 0.0205 0.0005 
54 1 0.00795725 0.0167065 0.021 0.001 
877 1 0.00678952 0.0202536 0.0205012 0.0005 
1060 1 0.0067164 0.0164372 0.0217996 0.0005 
1004 1 0.00468504 0.0195314 0.0207504 0.00075 
1293 1 0.00320478 0.0209531 0.0219788 0.0005 
1196 1 0.0078348 0.0169677 0.0224838 0.0005 
678 1 0.00100242 0.0210892 0.0209999 0.001 
1570 1 0.00648225 0.0191888 0.0205 0.0005 
688 1 0.000510631 0.019892 0.0218941 0.0005 
896 1 0.00579937 0.0200516 0.0205 0.0005 
1660 1 0.00434475 0.0177492 0.0205151 0.0005 
972 1 0.00580591 0.0156543 0.0222773 0.00075 
223 1 0.00236299 0.0185967 0.02175 0.00175 
700 1 0.00371079 0.0208797 0.0207553 0.00075 
748 1 0.00766387 0.0148947 0.0220668 0.0005 
189 1 0.0159966 0.0148444 0.0205 0.0005 
786 1 0.00870588 0.0154802 0.0220011 0.0005 
180 1 0.00863922 0.0194555 0.0219996 0.002 
221 1 0.0104197 0.016458 0.0214999 0.0015 
118 1 0.0126987 0.0149366 0.0212493 0.00125 
198 1 0.0153477 0.0184163 0.0212496 0.00125 
717 1 0.0123962 0.018341 0.0212634 0.0005 
1232 1 0.00913504 0.0151928 0.0205 0.0005 
934 1 0.0136614 0.0194459 0.020756 0.00075 
1310 1 0.0131924 0.0172051 0.0205018 0.0005 
1212 1 0.0134702 0.0182374 0.0205 0.0005 
1338 1 0.0145898 0.0167411 0.0205 0.0005 
838 1 0.0135024 0.0173206 0.0219928 0.001 
624 1 0.0120987 0.0170007 0.0205 0.0005 
1035 1 0.0111214 0.0188461 0.0205 0.0005 
43 1 0.0142792 0.0150376 0.0205008 0.0005 
1592 1 0.0117973 0.0192794 0.0215055 0.0005 
1577 1 0.0148068 0.0199404 0.0205718 0.0005 
1636 1 0.012743 0.0212019 0.0220206 0.001 
1311 1 0.015991 0.019861 0.0205002 0.0005 
982 1 0.015551 0.020759 0.0205 0.0005 
947 1 0.0178073 0.0187661 0.0205 0.0005 
542 1 0.0180474 0.0151525 0.0220591 0.00075 
272 1 0.0235003 0.0145779 0.0204999 0.0005 
260 1 0.0170089 0.0167305 0.020999 0.001 
591 1 0.0225788 0.0153822 0.0207561 0.00075 
465 1 0.0185859 0.0163278 0.0205 0.0005 
719 1 0.0191903 0.0149544 0.0207628 0.00075 
628 1 0.0234601 0.0163813 0.0205 0.0005 
42 1 0.0230557 0.0175492 0.02075 0.00075 
747 1 0.0213557 0.0154019 0.0204999 0.0005 
813 1 0.0208029 0.0162389 0.0205017 0.0005 
787 1 0.0197597 0.0170987 0.0205 0.0005 
492 1 0.0207904 0.0172397 0.0205 0.0005 
238 1 0.0234853 0.0186983 0.0205 0.0005 
1216 1 0.0189597 0.0163648 0.0217871 0.00075 
1230 1 0.017347 0.014939 0.02075 0.00075 
566 1 0.0215692 0.0181854 0.02075 0.00075 
1333 1 0.0218668 0.0169972 0.0205005 0.0005 
1091 1 0.0200274 0.0180767 0.0205 0.0005 
1398 1 0.020642 0.0201983 0.0205 0.0005 
1189 1 0.0234996 0.0147372 0.0214896 0.0005 
1427 1 0.0204039 0.0150959 0.0204999 0.0005 
898 1 0.0205836 0.0174909 0.0214904 0.0005 
1253 1 0.0197297 0.0148477 0.0219235 0.0005 
1452 1 0.0204379 0.019112 0.0210845 0.00075 
1488 1 0.0189713 0.0191859 0.02075 0.00075 
1124 1 0.0234959 0.015996 0.0214329 0.0005 
1137 1 0.0214093 0.0179035 0.0219576 0.0005 
1184 1 0.0234829 0.0181511 0.0222048 0.0005 
1020 1 0.0224464 0.0201174 0.0214999 0.0015 
1401 1 0.0215517 0.0163433 0.0218141 0.001 
1298 1 0.0201965 0.015585 0.0213505 0.0005 
639 1 0.0231486 0.0142939 0.0223165 0.0005 
1170 1 0.0231754 0.0169074 0.0223196 0.00075 
1831 1 0.0173703 0.0192382 0.0220454 0.0005 
482 1 0.000573888 0.0234326 0.0205 0.0005 
12 1 0.000752158 0.0246443 0.0207499 0.00075 
600 1 0.00636256 0.0217818 0.021254 0.00125 
952 1 0.00518879 0.0249687 0.0205 0.0005 
1081 1 0.00755057 0.0250475 0.0205 0.0005 
1416 1 0.00245898 0.0216533 0.0205 0.0005 
904 1 0.00582351 0.025743 0.0205004 0.0005 
1439 1 0.00588068 0.0239409 0.02075 0.00075 
831 1 0.00399255 0.0260648 0.0209999 0.001 
534 1 0.00079478 0.0261151 0.0210598 0.00075 
1423 1 0.00344124 0.0281563 0.0204996 0.0005 
1406 1 0.00293208 0.0270025 0.0205 0.0005 
483 1 0.000499986 0.027899 0.0205 0.0005 
1394 1 0.0076959 0.0236062 0.0209999 0.001 
1483 1 0.00444528 0.021916 0.0212124 0.0005 
1512 1 0.00187456 0.0266394 0.0216474 0.0005 
752 1 0.00405042 0.0279765 0.0213862 0.0005 
919 1 0.00750909 0.0281269 0.0217499 0.00175 
1578 1 0.00102172 0.0252518 0.0219375 0.0005 
978 1 0.00781016 0.0261685 0.0205 0.0005 
1805 1 0.00204673 0.0237579 0.021249 0.00075 
1576 1 0.000533133 0.0272032 0.0221582 0.0005 
1164 1 0.0115097 0.0212984 0.02075 0.00075 
1144 1 0.0085175 0.0220041 0.0223284 0.0005 
1697 1 0.0097076 0.021911 0.021412 0.0005 
780 1 0.0119418 0.0244807 0.0205019 0.0005 
353 1 0.0133068 0.0237231 0.0205 0.0005 
1264 1 0.0101787 0.0212879 0.0205 0.0005 
1294 1 0.0108832 0.0243334 0.0205 0.0005 
1180 1 0.0111549 0.02257 0.0205 0.0005 
1208 1 0.00964502 0.0259462 0.0205 0.0005 
1462 1 0.0112916 0.0252844 0.0205 0.0005 
1467 1 0.012262 0.0230429 0.0206735 0.0005 
1343 1 0.00960758 0.0229797 0.0207502 0.00075 
1552 1 0.0116127 0.0234753 0.0216784 0.00075 
1563 1 0.0147208 0.0253322 0.0205009 0.0005 
1602 1 0.0124085 0.0255052 0.0205 0.0005 
1621 1 0.0125502 0.0247885 0.0216021 0.00075 
861 1 0.0133261 0.0265106 0.02075 0.00075 
1643 1 0.00887251 0.0264947 0.0208555 0.0005 
1539 1 0.0132847 0.0227227 0.0205 0.0005 
1330 1 0.0130513 0.0261487 0.0219144 0.0005 
1192 1 0.0145311 0.0268671 0.0205 0.0005 
1041 1 0.0110148 0.0270861 0.0215132 0.0015 
1350 1 0.0152752 0.0223723 0.0205 0.0005 
1614 1 0.00975255 0.0252586 0.0220813 0.00075 
1775 1 0.0153697 0.0225007 0.0219021 0.0005 
1693 1 0.0137218 0.0229236 0.0221939 0.0005 
1618 1 0.00903843 0.0265845 0.022358 0.0005 
1818 1 0.0155894 0.0278928 0.0223797 0.0005 
144 1 0.0161885 0.0254537 0.0211014 0.001 
152 1 0.0180317 0.025703 0.0205 0.0005 
1292 1 0.0184496 0.0240193 0.020769 0.00075 
512 1 0.0217983 0.0280066 0.0205012 0.0005 
862 1 0.0189967 0.0267385 0.0205041 0.0005 
957 1 0.0234954 0.0214996 0.0205 0.0005 
1288 1 0.0186534 0.0227511 0.0205 0.0005 
1105 1 0.0211033 0.0215528 0.0205 0.0005 
1320 1 0.019436 0.0216 0.02075 0.00075 
1048 1 0.0201963 0.0229062 0.02075 0.00075 
1415 1 0.0219305 0.0232942 0.0205535 0.0005 
1087 1 0.0234775 0.026633 0.0205301 0.0005 
1176 1 0.0220898 0.0267807 0.0207768 0.00075 
1269 1 0.0229 0.0242345 0.0207499 0.00075 
1507 1 0.0234926 0.027194 0.0213847 0.0005 
1106 1 0.0197698 0.0281931 0.0212515 0.00125 
1017 1 0.0165886 0.0224961 0.02075 0.00075 
1574 1 0.0235001 0.0276564 0.0204992 0.0005 
1472 1 0.0232499 0.0256018 0.021258 0.00075 
1590 1 0.0216518 0.0241915 0.0208987 0.0005 
1738 1 0.0181857 0.0214888 0.0214385 0.0005 
1634 1 0.0204126 0.024436 0.0207657 0.00075 
908 1 0.0223272 0.024132 0.0219309 0.0005 
1219 1 0.0229978 0.0227251 0.0216304 0.001 
1202 1 0.0219055 0.0219162 0.0222688 0.0005 
1598 1 0.0209089 0.0215965 0.0222615 0.0005 
162 1 0.000512723 0.0314483 0.0205 0.0005 
259 1 0.0017973 0.0324008 0.0205008 0.0005 
522 1 0.000759325 0.0330605 0.0207513 0.00075 
672 1 0.00439247 0.0340241 0.0207499 0.00075 
348 1 0.00231775 0.030988 0.0204995 0.0005 
337 1 0.00293098 0.0328753 0.02075 0.00075 
897 1 0.00049994 0.0342571 0.0204999 0.0005 
980 1 0.00717949 0.0299988 0.0205 0.0005 
991 1 0.00495035 0.0296136 0.0212499 0.00125 
638 1 0.00380316 0.0334897 0.0220215 0.00075 
925 1 0.00527695 0.0321127 0.0212499 0.00125 
1103 1 0.00631296 0.030519 0.0205 0.0005 
338 1 0.00187017 0.0291719 0.0217509 0.00175 
506 1 0.000501521 0.0335708 0.0218826 0.0005 
1480 1 0.00700876 0.0310297 0.0216037 0.00075 
505 1 0.00759678 0.0309687 0.0205001 0.0005 
1073 1 0.00480363 0.0353946 0.0211999 0.00075 
1084 1 0.00202377 0.0316769 0.0215036 0.00075 
1355 1 0.00172675 0.0331243 0.0215402 0.0005 
1143 1 0.00341532 0.0311008 0.0210864 0.00075 
471 1 0.00752702 0.0332477 0.0220821 0.00125 
261 1 0.0141278 0.0311336 0.0205 0.0005 
886 1 0.0097942 0.0335403 0.0205 0.0005 
138 1 0.00818188 0.0298986 0.0205328 0.0005 
984 1 0.0121258 0.0299645 0.0214999 0.0015 
1249 1 0.0153803 0.03111 0.0207506 0.00075 
1154 1 0.0114518 0.0345756 0.0205 0.0005 
609 1 0.0135737 0.033417 0.0205013 0.0005 
1134 1 0.00924791 0.0346839 0.02075 0.00075 
1340 1 0.0105399 0.0348114 0.0208379 0.0005 
1678 1 0.0143161 0.0343629 0.0212585 0.0005 
924 1 0.0124511 0.0346112 0.0205001 0.0005 
1762 1 0.0131369 0.0341331 0.0210491 0.0005 
1703 1 0.0142746 0.030349 0.0221895 0.0005 
1370 1 0.023249 0.0284098 0.0216016 0.00075 
1113 1 0.0189434 0.0299581 0.0207611 0.00075 
1361 1 0.0173753 0.0292719 0.0207501 0.00075 
1044 1 0.0218972 0.0302337 0.0212499 0.00125 
557 1 0.021175 0.0341127 0.0212499 0.00125 
1015 1 0.0232467 0.0290757 0.0205219 0.0005 
698 1 0.0176563 0.0307443 0.0207562 0.00075 
304 1 0.0227165 0.0315942 0.0205 0.0005 
1083 1 0.0167296 0.0325415 0.0212499 0.00125 
1142 1 0.0225873 0.0348451 0.0205 0.0005 
1335 1 0.0186911 0.0323606 0.0205 0.0005 
1348 1 0.0164519 0.0304741 0.0205 0.0005 
1273 1 0.023083 0.0346473 0.0213846 0.0005 
1414 1 0.0235 0.0344363 0.0205 0.0005 
1016 1 0.0231044 0.0332772 0.02075 0.00075 
959 1 0.0190648 0.033517 0.0205 0.0005 
1531 1 0.0196048 0.0319309 0.0205051 0.0005 
1329 1 0.0234943 0.0300986 0.0205001 0.0005 
1318 1 0.0216389 0.0321662 0.0205 0.0005 
1305 1 0.0199875 0.0309556 0.0212425 0.00075 
1145 1 0.0178341 0.0354015 0.02075 0.00075 
1258 1 0.0234832 0.0310306 0.020864 0.0005 
1695 1 0.0193992 0.0330048 0.022076 0.001 
889 1 0.0234989 0.0352712 0.0220461 0.0005 
1224 1 0.0185792 0.031486 0.021693 0.00075 
878 1 0.0232198 0.0336591 0.0222216 0.00075 
1213 1 0.0221118 0.0324871 0.0219603 0.00075 
1323 1 0.0220071 0.0284189 0.0217937 0.0005 
1447 1 0.0192555 0.0299628 0.022254 0.00075 
1603 1 0.0179598 0.0305104 0.0221678 0.0005 
249 1 0.00200211 0.0355694 0.0220069 0.002 
960 1 0.00765975 0.0358867 0.0215612 0.00075 
535 1 0.00050691 0.03705 0.0205 0.0005 
844 1 0.00373112 0.0365647 0.0205 0.0005 
60 1 0.00513318 0.0378082 0.0217617 0.00175 
451 1 0.000861171 0.0399729 0.0207489 0.00075 
366 1 0.0015147 0.0375036 0.0204999 0.0005 
680 1 0.00279708 0.0378826 0.02075 0.00075 
519 1 0.000557956 0.0414881 0.0205 0.0005 
247 1 0.00176011 0.0424372 0.020948 0.00075 
733 1 0.00269249 0.0413135 0.0205 0.0005 
1108 1 0.000750228 0.0384732 0.0207499 0.00075 
615 1 0.00529924 0.0396815 0.0205 0.0005 
554 1 0.000510863 0.0423522 0.0210014 0.0005 
1186 1 0.00292197 0.0422961 0.0205008 0.0005 
316 1 0.000499978 0.037501 0.0214946 0.0005 
1276 1 0.00258293 0.0397697 0.0209999 0.001 
1177 1 0.00438105 0.0413579 0.0212499 0.00125 
309 1 0.00557251 0.0423981 0.0205 0.0005 
626 1 0.00768805 0.0404123 0.0207517 0.00075 
1372 1 0.00751884 0.0383543 0.0223412 0.00075 
949 1 0.0070579 0.0390464 0.0207507 0.00075 
1301 1 0.00667471 0.0418585 0.0207519 0.00075 
1191 1 0.00113685 0.0392017 0.0222942 0.001 
91 1 0.00762308 0.0372503 0.02075 0.00075 
1537 1 0.00211982 0.0422849 0.0223969 0.00075 
1353 1 0.0105919 0.0362191 0.0215764 0.0005 
1419 1 0.0126019 0.036502 0.02075 0.00075 
640 1 0.009655 0.0362665 0.02075 0.00075 
514 1 0.00945562 0.0417124 0.0205021 0.0005 
641 1 0.0101973 0.040488 0.0209999 0.001 
1019 1 0.0153351 0.0366572 0.0205 0.0005 
669 1 0.00876269 0.0387373 0.0210009 0.001 
835 1 0.0094325 0.0374822 0.0205 0.0005 
802 1 0.0121174 0.0415223 0.0208017 0.00075 
1043 1 0.0134804 0.0401594 0.0209999 0.001 
1107 1 0.0111703 0.0369566 0.0207498 0.00075 
901 1 0.0104446 0.0382715 0.0208345 0.00075 
1149 1 0.013369 0.0362244 0.0221279 0.00075 
1482 1 0.0118362 0.0402787 0.0215967 0.00075 
1095 1 0.0152631 0.0356944 0.0218324 0.0005 
1265 1 0.0116736 0.0380185 0.0211772 0.0005 
1705 1 0.012859 0.0377403 0.0205091 0.0005 
1716 1 0.0157485 0.0415691 0.0205 0.0005 
912 1 0.00921886 0.0361854 0.0224501 0.001 
1346 1 0.0119212 0.0370355 0.0220492 0.00075 
1741 1 0.0108194 0.0399435 0.0222517 0.0005 
1484 1 0.0106426 0.0420871 0.0222057 0.001 
1743 1 0.0159169 0.0388136 0.0218036 0.001 
621 1 0.00842864 0.0415636 0.0213722 0.00075 
1645 1 0.00902148 0.040506 0.0223 0.00075 
1661 1 0.0122428 0.0414179 0.0222102 0.0005 
1487 1 0.0111596 0.0424024 0.020608 0.0005 
1644 1 0.00861407 0.0424493 0.0205083 0.0005 
1120 1 0.0199428 0.0358711 0.02075 0.00075 
909 1 0.0234994 0.0360208 0.0205 0.0005 
268 1 0.0165239 0.038193 0.0205 0.0005 
1278 1 0.019167 0.0394458 0.0205 0.0005 
1033 1 0.019235 0.0396771 0.0222164 0.001 
1307 1 0.020122 0.0372006 0.0204999 0.0005 
1018 1 0.0188885 0.0404842 0.0205 0.0005 
973 1 0.0198864 0.0404247 0.0205328 0.0005 
1148 1 0.018113 0.0377078 0.0213582 0.0005 
1167 1 0.016057 0.0355532 0.0205 0.0005 
990 1 0.0220708 0.0361616 0.021 0.001 
1003 1 0.0200568 0.0386044 0.02075 0.00075 
374 1 0.0232492 0.0385935 0.02075 0.00075 
394 1 0.0186445 0.0384361 0.0205 0.0005 
326 1 0.0235 0.04003 0.0205 0.0005 
650 1 0.0216304 0.0400318 0.0214999 0.0015 
848 1 0.0212466 0.0376851 0.0207507 0.00075 
993 1 0.023499 0.0410317 0.0205 0.0005 
996 1 0.0177446 0.0366246 0.0205 0.0005 
892 1 0.0189192 0.0369707 0.0207502 0.00075 
856 1 0.0170036 0.0373104 0.0205 0.0005 
1261 1 0.0234971 0.0373179 0.0205 0.0005 
1117 1 0.0204038 0.0413213 0.0205 0.0005 
1181 1 0.0167059 0.0363861 0.0213067 0.00075 
1268 1 0.0225043 0.0375924 0.0205024 0.0005 
1135 1 0.021212 0.042302 0.02075 0.00075 
1422 1 0.0187912 0.0419108 0.0209997 0.001 
1663 1 0.0188781 0.035938 0.0215446 0.0005 
1062 1 0.0229776 0.0421622 0.02075 0.00075 
1559 1 0.0190132 0.0381999 0.021399 0.0005 
1709 1 0.0164639 0.0424515 0.0209094 0.0005 
1051 1 0.0199287 0.0376563 0.0220608 0.00075 
876 1 0.0227388 0.0377155 0.0224839 0.00125 
1165 1 0.0208404 0.0364864 0.0223002 0.00075 
1506 1 0.0187342 0.0369377 0.0221607 0.0005 
1802 1 0.0162211 0.0372869 0.0221638 0.0005 
1431 1 0.02003 0.0416118 0.0223584 0.00075 
1747 1 0.0183773 0.0381783 0.0224433 0.0005 
1215 1 0.00296133 0.0428206 0.0213531 0.0005 
570 1 0.00383819 0.042856 0.0205 0.0005 
668 1 0.000567086 0.0435623 0.0205 0.0005 
386 1 0.00156756 0.0435921 0.0205001 0.0005 
433 1 0.00307946 0.0435191 0.0205 0.0005 
584 1 0.00520666 0.0440941 0.02075 0.00075 
579 1 0.000846017 0.0487801 0.02075 0.00075 
242 1 0.00640655 0.0447492 0.0205 0.0005 
814 1 0.00345698 0.0479306 0.0207682 0.00075 
1242 1 0.00451417 0.0492268 0.0205 0.0005 
987 1 0.00457938 0.0454368 0.0205 0.0005 
682 1 0.00719941 0.0429701 0.0205 0.0005 
762 1 0.000500165 0.0480115 0.0216733 0.0005 
1387 1 0.00562465 0.0468538 0.0209999 0.001 
236 1 0.0021134 0.0455203 0.0219998 0.002 
1432 1 0.00538725 0.0429369 0.0213224 0.0005 
1596 1 0.000502571 0.0496588 0.0215699 0.0005 
1030 1 0.00595454 0.0491191 0.0205002 0.0005 
1390 1 0.00220971 0.0486465 0.0207041 0.0005 
1357 1 0.00622427 0.0431591 0.0207152 0.0005 
1351 1 0.00454551 0.044392 0.0217681 0.0005 
1378 1 0.00441467 0.0432206 0.0216466 0.0005 
1571 1 0.0128574 0.0428252 0.0211668 0.00075 
1131 1 0.0139188 0.042764 0.0205034 0.0005 
533 1 0.00941777 0.0438282 0.0207538 0.00075 
1100 1 0.00940283 0.0464929 0.02075 0.00075 
40 1 0.00902234 0.0492085 0.0205 0.0005 
883 1 0.0154991 0.0483186 0.0205 0.0005 
328 1 0.00980239 0.0426558 0.0205092 0.0005 
453 1 0.0116845 0.0478216 0.0219998 0.002 
1194 1 0.012166 0.0436489 0.0205077 0.0005 
1240 1 0.0146237 0.0450932 0.02075 0.00075 
1297 1 0.0158771 0.0440375 0.02075 0.00075 
1701 1 0.0140069 0.043786 0.021225 0.00075 
1713 1 0.0115646 0.0432125 0.0212695 0.0005 
1766 1 0.0152335 0.0491001 0.0214689 0.00075 
1777 1 0.00952766 0.0455932 0.0219894 0.00075 
1486 1 0.0101885 0.0440275 0.0220494 0.00075 
1807 1 0.0113065 0.0441403 0.0207135 0.0005 
1481 1 0.0148085 0.0447532 0.0224625 0.001 
1490 1 0.0169193 0.0490032 0.0224248 0.00075 
969 1 0.0164901 0.0485323 0.0205 0.0005 
1023 1 0.0200385 0.0429047 0.0205 0.0005 
1133 1 0.0180642 0.0447095 0.02075 0.00075 
985 1 0.0159784 0.0457885 0.0205 0.0005 
499 1 0.0186036 0.0489123 0.021281 0.00125 
804 1 0.0234998 0.043279 0.0205 0.0005 
935 1 0.0217349 0.0488775 0.0205027 0.0005 
970 1 0.0232413 0.0468504 0.0207498 0.00075 
859 1 0.0205307 0.0485355 0.0207527 0.00075 
1097 1 0.0173074 0.0460499 0.02075 0.00075 
1155 1 0.0195277 0.0470641 0.0205066 0.0005 
1271 1 0.0221588 0.0431122 0.0205 0.0005 
1289 1 0.0185253 0.0471822 0.0205 0.0005 
1319 1 0.0162195 0.0468192 0.0205 0.0005 
1334 1 0.0168997 0.0433442 0.0205 0.0005 
917 1 0.0232331 0.04835 0.0207634 0.00075 
963 1 0.0205255 0.0468741 0.0205 0.0005 
1299 1 0.0191195 0.0458487 0.02075 0.00075 
1411 1 0.0185526 0.0469075 0.0217867 0.00075 
1426 1 0.0172195 0.047549 0.0207524 0.00075 
847 1 0.0232316 0.0456762 0.0216829 0.00075 
1494 1 0.0171748 0.0473039 0.0222548 0.00075 
1088 1 0.0202552 0.0462863 0.022252 0.001 
927 1 0.0194574 0.0438272 0.0219719 0.00125 
1188 1 0.0160928 0.046526 0.0215693 0.0005 
1430 1 0.0172575 0.0446427 0.0220711 0.0005 
1548 1 0.0170218 0.0458023 0.0222876 0.0005 
423 1 0.00172976 0.0503168 0.0210023 0.001 
347 1 0.0053642 0.0502162 0.0207536 0.00075 
1251 1 0.00314255 0.0502762 0.0205 0.0005 
855 1 0.00414245 0.0503249 0.0205 0.0005 
495 1 0.00627368 0.0508818 0.0220869 0.00075 
712 1 0.00638739 0.0515957 0.02075 0.00075 
543 1 0.00124983 0.0528045 0.0212499 0.00125 
402 1 0.00415191 0.0522187 0.0217498 0.00175 
3 1 0.00245627 0.0540387 0.0205 0.0005 
740 1 0.000500324 0.054014 0.0223542 0.0005 
354 1 0.00350176 0.0539887 0.0205 0.0005 
424 1 0.00751064 0.0526022 0.02075 0.00075 
265 1 0.00645089 0.0536758 0.02075 0.00075 
145 1 0.00150379 0.0555294 0.0215188 0.0015 
704 1 0.00335939 0.0554255 0.0205046 0.0005 
788 1 0.00542312 0.0547684 0.02075 0.00075 
1382 1 0.00419832 0.0547512 0.0205 0.0005 
1453 1 0.00399909 0.0564238 0.0204999 0.0005 
674 1 0.00634638 0.052638 0.0214387 0.0005 
1616 1 0.00299998 0.0563793 0.0204998 0.0005 
977 1 0.00485579 0.0559109 0.020548 0.0005 
1547 1 0.00710329 0.051785 0.0218032 0.0005 
603 1 0.00380239 0.0553028 0.0217294 0.00075 
1306 1 0.0124863 0.050191 0.02075 0.00075 
1565 1 0.0138509 0.0500676 0.0219963 0.001 
335 1 0.0117327 0.0513931 0.0205 0.0005 
405 1 0.0136062 0.0510044 0.0205 0.0005 
367 1 0.00938265 0.0512281 0.0217514 0.00175 
1201 1 0.0129681 0.052083 0.0207506 0.00075 
371 1 0.0131836 0.0544235 0.0205 0.0005 
496 1 0.00964219 0.0535151 0.0207544 0.00075 
1151 1 0.0147198 0.052069 0.0205019 0.0005 
792 1 0.0143293 0.0555538 0.0212499 0.00125 
1089 1 0.0127587 0.0553302 0.0205 0.0005 
278 1 0.0100377 0.0553996 0.0205 0.0005 
467 1 0.0151248 0.0534302 0.0209999 0.001 
1478 1 0.0121314 0.0556667 0.0218248 0.001 
1477 1 0.0157735 0.0511204 0.021004 0.001 
1638 1 0.0112891 0.0523876 0.0205014 0.0005 
1656 1 0.0103862 0.0546874 0.0218362 0.001 
11 1 0.0106584 0.0565038 0.02075 0.00075 
1706 1 0.00890589 0.0563511 0.0209024 0.0005 
1630 1 0.0152143 0.0543117 0.0222103 0.0005 
1162 1 0.0133424 0.0532868 0.0216365 0.00075 
1538 1 0.0159275 0.0549975 0.0220638 0.0005 
649 1 0.0155499 0.0565588 0.0205 0.0005 
1332 1 0.0128973 0.0513095 0.0217432 0.0005 
1550 1 0.00922839 0.0555672 0.0222243 0.0005 
1824 1 0.00803624 0.0553388 0.0205794 0.0005 
485 1 0.023249 0.0498497 0.0207509 0.00075 
1384 1 0.0168216 0.049717 0.02075 0.00075 
1363 1 0.017956 0.0503452 0.0205 0.0005 
410 1 0.0191019 0.0504837 0.0205 0.0005 
168 1 0.0220934 0.0516288 0.0215009 0.0015 
133 1 0.0183954 0.0512442 0.0205 0.0005 
769 1 0.0203513 0.0516647 0.0205 0.0005 
976 1 0.0161908 0.0543595 0.0205 0.0005 
776 1 0.0177506 0.0520084 0.0205 0.0005 
702 1 0.0215748 0.0536101 0.0205 0.0005 
415 1 0.0235 0.0539046 0.0205 0.0005 
431 1 0.0166944 0.0557257 0.0209999 0.001 
573 1 0.0195342 0.0531984 0.0214999 0.0015 
73 1 0.0211163 0.0554112 0.0209997 0.001 
470 1 0.0199518 0.0563053 0.0205 0.0005 
785 1 0.0177596 0.0543601 0.0207498 0.00075 
661 1 0.0190027 0.0556895 0.0215114 0.001 
1102 1 0.0234886 0.05289 0.0205 0.0005 
1005 1 0.0228885 0.0550325 0.0205011 0.0005 
1146 1 0.0180778 0.0563427 0.0205 0.0005 
690 1 0.0193735 0.0514544 0.0205 0.0005 
829 1 0.0170713 0.0530274 0.02075 0.00075 
777 1 0.0197925 0.0549118 0.0205002 0.0005 
1200 1 0.0205198 0.0504526 0.020502 0.0005 
1009 1 0.0206599 0.05592 0.0223346 0.0005 
112 1 0.0232437 0.0561494 0.0209868 0.00075 
1456 1 0.0221219 0.0564163 0.0205 0.0005 
808 1 0.022724 0.0542466 0.0220583 0.00125 
1421 1 0.00189806 0.0574029 0.0223901 0.0005 
551 1 0.00343666 0.0573395 0.0211729 0.00075 
122 1 0.00180926 0.0579587 0.0209999 0.001 
230 1 0.00476001 0.0577862 0.0205 0.0005 
1260 1 0.00678115 0.057681 0.0212499 0.00125 
637 1 0.000499882 0.0587681 0.0215218 0.0005 
525 1 0.00236098 0.0592651 0.0204999 0.0005 
866 1 0.000515556 0.0590576 0.0205 0.0005 
194 1 0.00139041 0.0596243 0.0213325 0.00075 
357 1 0.000509391 0.0602225 0.0205 0.0005 
567 1 0.00216066 0.0602828 0.0205 0.0005 
773 1 0.00614085 0.0616518 0.0205 0.0005 
510 1 0.00125429 0.0616172 0.0212498 0.00125 
331 1 0.000502759 0.0630111 0.0205001 0.0005 
94 1 0.00699901 0.0637025 0.0209999 0.001 
1199 1 0.00496145 0.0637738 0.0205 0.0005 
267 1 0.000499195 0.0631765 0.0214894 0.0005 
665 1 0.00324053 0.0635058 0.0214999 0.0015 
487 1 0.00434992 0.0600028 0.0222498 0.00225 
791 1 0.00558449 0.0630517 0.0222551 0.001 
936 1 0.00721879 0.0592704 0.0205 0.0005 
1169 1 0.0156395 0.0567539 0.0221201 0.0005 
116 1 0.00885169 0.0631046 0.0205 0.0005 
489 1 0.00810893 0.0613006 0.0217499 0.00175 
1054 1 0.0084827 0.057396 0.0205 0.0005 
781 1 0.00982581 0.0626186 0.020502 0.0005 
923 1 0.00972652 0.0573868 0.0205 0.0005 
88 1 0.00910274 0.0594894 0.0205 0.0005 
1156 1 0.0138729 0.057378 0.0209639 0.0005 
907 1 0.0100928 0.0623338 0.0215032 0.0005 