ITEM: TIMESTEP
170000
ITEM: NUMBER OF ATOMS
1613
ITEM: BOX BOUNDS mm mm mm
-2.4e-06 0.0240024
-7.8e-06 0.0780078
-3e-06 0.030003
ITEM: ATOMS id type x y z radius 
324 1 0.00772691 0.003734 0.0219998 0.002 
291 1 0.00264854 0.00154922 0.0215045 0.0015 
368 1 0.000524537 0.000772384 0.0205 0.0005 
784 1 0.00536332 0.00284445 0.02075 0.00075 
32 1 0.00502308 0.000500004 0.0205 0.0005 
241 1 0.00420875 0.00240952 0.0205012 0.0005 
815 1 0.000745425 0.00174767 0.0205 0.0005 
448 1 0.00346221 0.00307477 0.0204997 0.0005 
300 1 0.0005 0.000527299 0.0214691 0.0005 
442 1 0.00100473 0.00336625 0.0210014 0.001 
816 1 0.00573893 0.00414772 0.0205 0.0005 
710 1 0.00402314 0.00049993 0.0204999 0.0005 
527 1 0.000500275 0.00468763 0.0205001 0.0005 
256 1 0.000500294 0.00568839 0.0205 0.0005 
870 1 0.00762292 0.00573144 0.0204999 0.0005 
100 1 0.00456907 0.00226796 0.0215241 0.0005 
153 1 0.00476347 0.00130967 0.0212092 0.0005 
486 1 0.00361413 0.00519121 0.0222486 0.00225 
722 1 0.00154672 0.00468308 0.0205009 0.0005 
864 1 0.00436059 0.000524537 0.021849 0.0005 
503 1 0.000558876 0.00460329 0.0217458 0.0005 
561 1 0.0061919 0.00158321 0.02075 0.00075 
501 1 0.00560336 0.000535776 0.0213143 0.0005 
64 1 0.00636729 0.00638174 0.0209997 0.001 
954 1 0.0067745 0.000500136 0.0209918 0.0005 
274 1 0.00773611 0.00673584 0.0204999 0.0005 
75 1 0.0013692 0.00655033 0.0207568 0.00075 
1195 1 0.00774154 0.00124294 0.0217962 0.0005 
390 1 0.000528473 0.0059613 0.0215375 0.0005 
842 1 0.00662019 0.0059464 0.0224229 0.0005 
887 1 0.00691484 0.0068986 0.0222969 0.0005 
380 1 0.00477692 0.00700865 0.0205086 0.0005 
121 1 0.00873353 0.00680095 0.0204999 0.0005 
228 1 0.0086159 0.0056145 0.0205 0.0005 
490 1 0.00973078 0.00390269 0.0205 0.0005 
199 1 0.0120652 0.00243664 0.0205 0.0005 
395 1 0.0109561 0.00249635 0.0204999 0.0005 
474 1 0.0139104 0.000946028 0.0207504 0.00075 
282 1 0.0112886 0.00150929 0.0205 0.0005 
590 1 0.0106432 0.000503791 0.0205 0.0005 
176 1 0.0127688 0.000500276 0.0204999 0.0005 
289 1 0.0116895 0.000509673 0.0205 0.0005 
362 1 0.00964086 0.0005023 0.0205 0.0005 
370 1 0.00821219 0.000749744 0.0207495 0.00075 
783 1 0.0106485 0.0035048 0.0205006 0.0005 
51 1 0.0130686 0.00261063 0.0205 0.0005 
233 1 0.00991907 0.00169615 0.02075 0.00075 
217 1 0.0105009 0.00454435 0.0205 0.0005 
636 1 0.011891 0.00586258 0.0205 0.0005 
549 1 0.010212 0.00421792 0.0214061 0.0005 
126 1 0.012238 0.00417359 0.0215147 0.0015 
307 1 0.00870629 0.00197978 0.0205 0.0005 
676 1 0.0104406 0.000750446 0.0217958 0.00075 
209 1 0.0135963 0.00535429 0.0205 0.0005 
730 1 0.00886372 0.00158674 0.0214108 0.0005 
764 1 0.0101214 0.00606772 0.0212731 0.00125 
311 1 0.0133673 0.00657544 0.0213405 0.001 
192 1 0.014772 0.00571511 0.0207499 0.00075 
763 1 0.00954326 0.00286622 0.0205 0.0005 
66 1 0.0140161 0.00444665 0.0205 0.0005 
61 1 0.0141312 0.00489305 0.02145 0.0005 
108 1 0.0147266 0.00303392 0.0212498 0.00125 
581 1 0.0118523 0.00643484 0.0222053 0.00075 
89 1 0.00924024 0.000503284 0.0214163 0.0005 
155 1 0.0123507 0.00142977 0.0219224 0.00125 
178 1 0.0153974 0.000749901 0.0207499 0.00075 
364 1 0.0103954 0.00287235 0.0215517 0.00075 
161 1 0.0232467 0.000749973 0.0207498 0.00075 
159 1 0.0226604 0.00332307 0.0204992 0.0005 
204 1 0.0235005 0.00386407 0.0204999 0.0005 
219 1 0.0215094 0.00100067 0.0209999 0.001 
333 1 0.0232307 0.00426529 0.0216572 0.00075 
142 1 0.0232501 0.0022501 0.02075 0.00075 
200 1 0.0207061 0.00340511 0.02075 0.00075 
340 1 0.0220125 0.00437147 0.02075 0.00075 
452 1 0.0235002 0.00486356 0.0204997 0.0005 
518 1 0.0201131 0.00202647 0.02075 0.00075 
185 1 0.0164849 0.00481195 0.0212499 0.00125 
31 1 0.0172989 0.00169029 0.0214993 0.0015 
123 1 0.0228924 0.00100416 0.0224444 0.001 
273 1 0.0220415 0.0029503 0.0218126 0.001 
113 1 0.0177181 0.00375228 0.0205 0.0005 
544 1 0.018724 0.00475197 0.0209999 0.001 
577 1 0.02325 0.00576657 0.0213263 0.00075 
652 1 0.0179018 0.00568667 0.0219776 0.0005 
290 1 0.0189831 0.00303251 0.02075 0.00075 
281 1 0.0203628 0.00395132 0.0221041 0.00075 
190 1 0.0178245 0.00626555 0.02075 0.00075 
57 1 0.0207863 0.00609649 0.0215734 0.0015 
143 1 0.0224638 0.00627697 0.0204997 0.0005 
853 1 0.0190953 0.00627629 0.0205003 0.0005 
106 1 0.0224215 0.00508127 0.0221491 0.0005 
1012 1 0.0186696 0.00679044 0.0220369 0.00075 
588 1 0.00350565 0.00739606 0.0205 0.0005 
360 1 0.00671717 0.0126459 0.0205 0.0005 
154 1 0.00569721 0.00923318 0.02075 0.00075 
427 1 0.00514047 0.00837864 0.0219533 0.0005 
13 1 0.000509887 0.00745901 0.0205 0.0005 
879 1 0.0071411 0.00756451 0.0204997 0.0005 
137 1 0.0011163 0.00831134 0.0205067 0.0005 
44 1 0.00470413 0.0109406 0.0207492 0.00075 
401 1 0.00606104 0.0118406 0.0219089 0.00125 
1166 1 0.0062601 0.00805826 0.0214937 0.00075 
1234 1 0.00520644 0.0100821 0.0215267 0.0005 
323 1 0.00283412 0.00936027 0.0219999 0.002 
820 1 0.000644277 0.00924345 0.0205057 0.0005 
1067 1 0.00767849 0.0130983 0.0205 0.0005 
1359 1 0.00219964 0.00744887 0.0205 0.0005 
713 1 0.00234546 0.0113043 0.0205022 0.0005 
881 1 0.000504414 0.00997949 0.021213 0.0005 
911 1 0.00430218 0.011806 0.0224063 0.0005 
943 1 0.00283029 0.0121812 0.0205031 0.0005 
673 1 0.00394518 0.0121934 0.0210714 0.00075 
174 1 0.00101816 0.0117964 0.0210046 0.001 
447 1 0.00756058 0.00847146 0.0204995 0.0005 
1070 1 0.00769847 0.00767102 0.0216715 0.00075 
737 1 0.0033654 0.0131428 0.0205 0.0005 
646 1 0.00229772 0.0131901 0.0205175 0.0005 
508 1 0.00128709 0.0133529 0.0205 0.0005 
888 1 0.00399255 0.0138942 0.0207304 0.0005 
611 1 0.00749532 0.0140815 0.0205 0.0005 
171 1 0.0118006 0.00708393 0.0207499 0.00075 
891 1 0.00813671 0.00765399 0.0205002 0.0005 
35 1 0.00801107 0.00990411 0.0218193 0.0015 
275 1 0.013444 0.00911643 0.0207497 0.00075 
46 1 0.0093436 0.0078626 0.0207503 0.00075 
556 1 0.0125892 0.0105702 0.0207995 0.00075 
287 1 0.0111405 0.0107773 0.0204998 0.0005 
714 1 0.0158065 0.0121582 0.0204996 0.0005 
865 1 0.0137729 0.0103014 0.0205 0.0005 
756 1 0.011077 0.00906558 0.0215316 0.0015 
318 1 0.0131281 0.0082237 0.0219126 0.00075 
686 1 0.00961574 0.0101735 0.0205 0.0005 
975 1 0.0146062 0.0105625 0.0214637 0.0005 
10 1 0.0146094 0.010851 0.0205003 0.0005 
569 1 0.0114872 0.0111904 0.0213944 0.0005 
252 1 0.00906723 0.0110214 0.0205 0.0005 
33 1 0.0159581 0.00793513 0.0220026 0.002 
872 1 0.00805927 0.0119341 0.02075 0.00075 
188 1 0.0141413 0.0125056 0.0215508 0.0015 
772 1 0.0118209 0.0115096 0.0205009 0.0005 
709 1 0.0102153 0.0115792 0.0207498 0.00075 
1061 1 0.0112654 0.0122432 0.0209952 0.0005 
110 1 0.012455 0.0122822 0.0204998 0.0005 
1118 1 0.0098409 0.010637 0.0214809 0.0005 
826 1 0.015264 0.0103384 0.022225 0.0005 
59 1 0.0114553 0.0130967 0.0205 0.0005 
974 1 0.0125093 0.0132803 0.0204997 0.0005 
571 1 0.0136469 0.00997344 0.0224613 0.001 
734 1 0.0119403 0.0123915 0.0220407 0.00075 
968 1 0.0105146 0.0113745 0.0222323 0.00075 
62 1 0.00951671 0.0139267 0.0219997 0.002 
1238 1 0.0094235 0.00831539 0.0223806 0.0005 
80 1 0.0160255 0.0107616 0.021 0.001 
342 1 0.016177 0.0118459 0.0223736 0.00075 
189 1 0.0160125 0.0140787 0.0205 0.0005 
319 1 0.0215747 0.00761039 0.0205 0.0005 
6 1 0.0230001 0.00755488 0.0210731 0.001 
293 1 0.0186717 0.0107327 0.02175 0.00175 
735 1 0.0208791 0.010346 0.021549 0.0005 
308 1 0.0210925 0.00896386 0.0210058 0.001 
49 1 0.0181447 0.00893569 0.020501 0.0005 
146 1 0.0203895 0.00773811 0.0205004 0.0005 
109 1 0.0195301 0.00722566 0.0205004 0.0005 
578 1 0.023 0.00956672 0.0209999 0.001 
139 1 0.016929 0.0129476 0.0211045 0.001 
90 1 0.0196338 0.00810475 0.0214805 0.00075 
71 1 0.0204809 0.0102405 0.0205 0.0005 
659 1 0.0183928 0.00768712 0.0207495 0.00075 
967 1 0.0172756 0.00946077 0.0205 0.0005 
130 1 0.0212377 0.0118853 0.0205 0.0005 
41 1 0.0217457 0.0107616 0.0207499 0.00075 
231 1 0.0234392 0.0111928 0.0205 0.0005 
279 1 0.0235 0.00859606 0.0220301 0.0005 
693 1 0.0217335 0.00786634 0.0218156 0.0005 
725 1 0.0232488 0.0111736 0.0218103 0.00075 
697 1 0.0204733 0.0112405 0.0205 0.0005 
330 1 0.0224454 0.0120894 0.02075 0.00075 
78 1 0.0230469 0.0131562 0.0205 0.0005 
741 1 0.0183463 0.0137775 0.0214499 0.0005 
800 1 0.0204878 0.0125471 0.0205 0.0005 
538 1 0.0235 0.0125924 0.0211941 0.0005 
1236 1 0.0199585 0.0125509 0.0214098 0.0005 
812 1 0.0227288 0.0125216 0.0218881 0.0005 
944 1 0.0235 0.0137192 0.0211912 0.0005 
794 1 0.0189633 0.0129375 0.0214078 0.0005 
592 1 0.0182431 0.0125528 0.0204995 0.0005 
910 1 0.0218436 0.00995702 0.0222539 0.00075 
450 1 0.0179803 0.0138305 0.0205 0.0005 
523 1 0.0188542 0.0133439 0.0205 0.0005 
956 1 0.0198537 0.0133205 0.0205 0.0005 
350 1 0.021444 0.0140068 0.0214999 0.0015 
1193 1 0.0194544 0.0137896 0.0216167 0.0005 
439 1 0.00567658 0.0142211 0.0212499 0.00125 
70 1 0.000500004 0.0141232 0.0205 0.0005 
695 1 0.00744311 0.0153937 0.02075 0.00075 
550 1 0.000730978 0.0191 0.0205 0.0005 
1 1 0.00608778 0.0161137 0.02075 0.00075 
529 1 0.00125 0.0165438 0.0212502 0.00125 
786 1 0.00772962 0.0166274 0.0217915 0.0005 
269 1 0.00470038 0.0191398 0.0212499 0.00125 
19 1 0.00403664 0.0165394 0.0212499 0.00125 
1077 1 0.00520862 0.0176223 0.0205 0.0005 
54 1 0.00662618 0.0178589 0.0210001 0.001 
877 1 0.00581241 0.0206785 0.0206115 0.0005 
1060 1 0.00566258 0.0176397 0.0222026 0.0005 
1004 1 0.00310663 0.0203474 0.02075 0.00075 
1293 1 0.00262043 0.0208807 0.021781 0.0005 
1196 1 0.00606999 0.0185841 0.0221911 0.0005 
678 1 0.00100164 0.0207539 0.0210033 0.001 
1570 1 0.00621492 0.0197615 0.0205435 0.0005 
688 1 0.000506011 0.0206612 0.0224176 0.0005 
180 1 0.00817536 0.020415 0.0219998 0.002 
221 1 0.00986295 0.0173894 0.0214999 0.0015 
118 1 0.0126185 0.0148344 0.0212958 0.00125 
198 1 0.0143072 0.0174989 0.0212513 0.00125 
582 1 0.0158936 0.017185 0.0224517 0.00075 
717 1 0.0120879 0.0186172 0.0212485 0.0005 
1232 1 0.00863836 0.015767 0.0205 0.0005 
934 1 0.0116758 0.0197617 0.02075 0.00075 
1310 1 0.0116776 0.0162122 0.0205 0.0005 
1212 1 0.0116703 0.0180471 0.0205 0.0005 
1338 1 0.0122243 0.0170984 0.0205023 0.0005 
838 1 0.0123178 0.0169348 0.0222356 0.001 
1448 1 0.0106937 0.0189533 0.0225552 0.0005 
624 1 0.0103675 0.019287 0.0205 0.0005 
1496 1 0.0139574 0.0197811 0.0216599 0.00075 
1035 1 0.0106008 0.0199094 0.0214389 0.0005 
43 1 0.0155676 0.015018 0.0205 0.0005 
947 1 0.0159342 0.017686 0.0205 0.0005 
542 1 0.0170066 0.0143368 0.0221724 0.00075 
272 1 0.0235 0.0144419 0.0205 0.0005 
260 1 0.0164 0.0163269 0.0210021 0.001 
345 1 0.0195607 0.0143825 0.0205 0.0005 
591 1 0.0231511 0.0156146 0.0207558 0.00075 
465 1 0.0177458 0.0168213 0.0205 0.0005 
719 1 0.0187039 0.0154109 0.0207541 0.00075 
628 1 0.0234986 0.016788 0.0205 0.0005 
42 1 0.0232258 0.0179788 0.0207656 0.00075 
747 1 0.02181 0.0156999 0.0205 0.0005 
813 1 0.0213351 0.0165902 0.0205 0.0005 
787 1 0.0185866 0.016494 0.0214189 0.0005 
492 1 0.0216292 0.0181818 0.0205001 0.0005 
238 1 0.0235 0.019207 0.0205 0.0005 
1216 1 0.0177943 0.0156136 0.0219471 0.00075 
1230 1 0.0172787 0.0148343 0.020751 0.00075 
566 1 0.0222349 0.0192979 0.02075 0.00075 
1333 1 0.0223256 0.0166886 0.0209175 0.0005 
1091 1 0.0196383 0.017765 0.0205163 0.0005 
1398 1 0.0208425 0.0208992 0.0205 0.0005 
1189 1 0.0233246 0.0157232 0.0221852 0.0005 
1427 1 0.0199506 0.01525 0.0208377 0.0005 
898 1 0.0216275 0.0182064 0.0216212 0.0005 
1253 1 0.0193981 0.0149536 0.0216854 0.0005 
1452 1 0.0208227 0.0201278 0.0222572 0.00075 
1488 1 0.0190196 0.0191864 0.0207847 0.00075 
1124 1 0.023447 0.0182135 0.0220172 0.0005 
1298 1 0.0183674 0.0170846 0.0222484 0.0005 
1137 1 0.0226935 0.0195941 0.0223517 0.0005 
896 1 0.00409923 0.0215182 0.0205 0.0005 
482 1 0.000524602 0.0231685 0.0205 0.0005 
12 1 0.000820998 0.0246741 0.02075 0.00075 
700 1 0.00247937 0.021712 0.0207515 0.00075 
600 1 0.00563588 0.0223688 0.0212499 0.00125 
36 1 0.00352468 0.0246318 0.0217499 0.00175 
952 1 0.00505231 0.0257181 0.0205031 0.0005 
1081 1 0.00727165 0.0257348 0.0205 0.0005 
1416 1 0.0024603 0.0230158 0.0204999 0.0005 
904 1 0.00604071 0.027244 0.0205 0.0005 
1439 1 0.00616638 0.0247476 0.0207499 0.00075 
831 1 0.00450822 0.0274073 0.0209999 0.001 
534 1 0.00240839 0.0278995 0.02075 0.00075 
1376 1 0.00334781 0.0212724 0.0224457 0.0005 
152 1 0.015836 0.0276134 0.0205 0.0005 
780 1 0.0122745 0.0242336 0.0205 0.0005 
353 1 0.0133261 0.0243149 0.0205 0.0005 
144 1 0.0157197 0.0236825 0.0218594 0.001 
978 1 0.00873799 0.025987 0.0205 0.0005 
1264 1 0.0105159 0.0220254 0.0209017 0.0005 
1294 1 0.0105603 0.0238885 0.0205039 0.0005 
1394 1 0.00840398 0.0242523 0.0210197 0.001 
1164 1 0.0122283 0.0212671 0.0207702 0.00075 
1180 1 0.0114193 0.0221809 0.0205 0.0005 
1208 1 0.00957916 0.0267376 0.0207167 0.0005 
1462 1 0.0109288 0.0273959 0.0205 0.0005 
1467 1 0.0131207 0.0229511 0.0219146 0.0005 
1343 1 0.00974922 0.0230863 0.0218152 0.00075 
1552 1 0.0122082 0.0241249 0.0217523 0.00075 
1563 1 0.0148971 0.0251458 0.0215684 0.0005 
1577 1 0.0144501 0.0214884 0.0211803 0.0005 
1602 1 0.0124867 0.0271596 0.0211223 0.0005 
1350 1 0.0161266 0.0245599 0.0205 0.0005 
1292 1 0.0166332 0.0260013 0.0208005 0.00075 
512 1 0.0198581 0.0281286 0.0205075 0.0005 
862 1 0.0195698 0.0256847 0.0205 0.0005 
1020 1 0.022499 0.0214261 0.0214999 0.0015 
982 1 0.0174305 0.023382 0.0205 0.0005 
957 1 0.0233127 0.0246316 0.0205 0.0005 
1113 1 0.0184922 0.0275339 0.0207532 0.00075 
1288 1 0.0190401 0.0231073 0.0205 0.0005 
1105 1 0.0204117 0.0218069 0.0205 0.0005 
1311 1 0.017069 0.0224831 0.0207676 0.0005 
1320 1 0.0191279 0.0217955 0.0208245 0.00075 
1361 1 0.0170388 0.0279373 0.02075 0.00075 
1048 1 0.0192947 0.0243151 0.0207498 0.00075 
1415 1 0.0207932 0.0243792 0.0205 0.0005 
1087 1 0.0222625 0.0257378 0.0204997 0.0005 
1176 1 0.0197446 0.0274343 0.0216074 0.00075 
1269 1 0.0220778 0.0246825 0.0211806 0.00075 
1507 1 0.0233979 0.0272161 0.0220624 0.0005 
1106 1 0.0179335 0.0265931 0.0224355 0.00125 
1017 1 0.0185691 0.0236196 0.0218631 0.00075 
1574 1 0.0233908 0.028111 0.0211226 0.0005 
1590 1 0.0215985 0.0264223 0.0233316 0.0005 
1423 1 0.00456748 0.0283545 0.0221616 0.0005 
162 1 0.000526222 0.0317459 0.0205 0.0005 
249 1 0.00212303 0.0350403 0.0221498 0.002 
259 1 0.00206538 0.0321994 0.0205 0.0005 
522 1 0.000969132 0.0328962 0.02075 0.00075 
672 1 0.00435907 0.0341729 0.02075 0.00075 
348 1 0.00432502 0.0316195 0.0205 0.0005 
337 1 0.00329261 0.032929 0.02075 0.00075 
897 1 0.000502535 0.0340309 0.0205 0.0005 
980 1 0.00582509 0.0310903 0.0205 0.0005 
991 1 0.00467281 0.0300065 0.0212492 0.00125 
638 1 0.00442068 0.0333121 0.0219877 0.00075 
925 1 0.00625698 0.0336198 0.0212499 0.00125 
483 1 0.000508426 0.0288178 0.0205188 0.0005 
1103 1 0.00616293 0.0320408 0.0205 0.0005 
338 1 0.00174879 0.0300792 0.0219112 0.00175 
1406 1 0.00364223 0.0286435 0.0216974 0.0005 
506 1 0.000499993 0.0327433 0.0218984 0.0005 
1480 1 0.00747791 0.0320641 0.0217084 0.00075 
505 1 0.00745969 0.0317123 0.0205037 0.0005 
919 1 0.0073986 0.0288579 0.0217499 0.00175 
1073 1 0.00492146 0.0347754 0.0221906 0.00075 
1084 1 0.00316345 0.0323027 0.0221669 0.00075 
261 1 0.0146722 0.0300968 0.0205 0.0005 
886 1 0.0105449 0.0339135 0.020503 0.0005 
138 1 0.00983381 0.0321502 0.0205 0.0005 
861 1 0.0125619 0.0284961 0.0208629 0.00075 
471 1 0.00875689 0.0336057 0.0212499 0.00125 
984 1 0.0134279 0.0314116 0.0214999 0.0015 
1192 1 0.0137355 0.0291451 0.0205 0.0005 
1249 1 0.0155285 0.0292712 0.0209306 0.00075 
1041 1 0.0105967 0.0293907 0.0214999 0.0015 
1330 1 0.0125145 0.0292039 0.0222243 0.0005 
1446 1 0.0115973 0.0335404 0.0210769 0.00075 
1154 1 0.0109898 0.0350403 0.0207371 0.0005 
1153 1 0.0138168 0.0338271 0.0224954 0.001 
609 1 0.0156829 0.0325921 0.0205 0.0005 
1044 1 0.0211581 0.0289726 0.0214481 0.00125 
557 1 0.0212699 0.0329212 0.0212522 0.00125 
1015 1 0.0234553 0.0295101 0.0205 0.0005 
698 1 0.0180604 0.0291228 0.0207801 0.00075 
304 1 0.0229259 0.031191 0.0205 0.0005 
1083 1 0.0166457 0.0309084 0.0212571 0.00125 
909 1 0.0231934 0.0348693 0.0205 0.0005 
1120 1 0.0204156 0.0346592 0.0207505 0.00075 
916 1 0.0167002 0.0288512 0.0216026 0.0005 
1142 1 0.0222068 0.0347153 0.0205493 0.0005 
1335 1 0.0186271 0.0315923 0.0207557 0.0005 
1348 1 0.0167904 0.0291917 0.0205095 0.0005 
1273 1 0.0223759 0.034975 0.0220236 0.0005 
1414 1 0.0230166 0.0343255 0.0214866 0.0005 
1016 1 0.0232497 0.0325009 0.0210833 0.00075 
959 1 0.0189638 0.0341404 0.0205 0.0005 
1531 1 0.0187827 0.0305934 0.0205 0.0005 
1329 1 0.0234305 0.0309191 0.0219585 0.0005 
535 1 0.000500764 0.0359875 0.0205 0.0005 
844 1 0.00383822 0.0358626 0.0205 0.0005 
60 1 0.00515581 0.0372626 0.0217497 0.00175 
451 1 0.000790263 0.0394829 0.02075 0.00075 
433 1 0.00241124 0.0425278 0.0205 0.0005 
386 1 0.00153076 0.0420335 0.0205 0.0005 
366 1 0.00118905 0.0367134 0.0205 0.0005 
680 1 0.00220044 0.0374058 0.0207499 0.00075 
519 1 0.000557617 0.0408567 0.0205 0.0005 
668 1 0.000508232 0.0420065 0.0205 0.0005 
247 1 0.00178181 0.0408336 0.0207549 0.00075 
733 1 0.0030038 0.0407647 0.0205007 0.0005 
1108 1 0.00075003 0.0378568 0.02075 0.00075 
615 1 0.00566254 0.0390768 0.0205 0.0005 
554 1 0.00051289 0.0413696 0.021528 0.0005 
1186 1 0.0033285 0.0417332 0.0205 0.0005 
316 1 0.000501319 0.0367305 0.021236 0.0005 
1276 1 0.00292963 0.0389785 0.0210067 0.001 
1177 1 0.00455725 0.0405155 0.0212699 0.00125 
570 1 0.00492257 0.0420452 0.0205 0.0005 
309 1 0.00583603 0.0425252 0.0205005 0.0005 
626 1 0.00737561 0.0407555 0.0207677 0.00075 
1372 1 0.00755501 0.0383851 0.0223844 0.00075 
949 1 0.00752817 0.0392033 0.02075 0.00075 
1301 1 0.00701928 0.0423417 0.0216757 0.00075 
1191 1 0.00100134 0.0381365 0.0224603 0.001 
1419 1 0.0137165 0.0357911 0.02075 0.00075 
640 1 0.010804 0.036533 0.0208028 0.00075 
91 1 0.00846415 0.0364159 0.02075 0.00075 
514 1 0.010456 0.0410208 0.0205 0.0005 
641 1 0.0109644 0.0391388 0.0209999 0.001 
1019 1 0.0158748 0.0368121 0.0205 0.0005 
669 1 0.00904539 0.0380256 0.0215314 0.001 
835 1 0.0099645 0.0374135 0.0205136 0.0005 
1134 1 0.00978935 0.0353937 0.0207516 0.00075 
802 1 0.0127126 0.0394869 0.02075 0.00075 
1101 1 0.0153125 0.0419023 0.021777 0.00075 
960 1 0.00865815 0.0355421 0.0220199 0.00075 
1278 1 0.0158041 0.0409083 0.0205 0.0005 
1043 1 0.0138098 0.0381844 0.0211868 0.001 
1107 1 0.0122415 0.0360908 0.0207664 0.00075 
1131 1 0.0140601 0.0396765 0.0205 0.0005 
901 1 0.0117291 0.0375797 0.021385 0.00075 
268 1 0.0158841 0.0383436 0.0205012 0.0005 
924 1 0.0126147 0.0361457 0.0221217 0.0005 
1487 1 0.0104907 0.0422793 0.0205 0.0005 
1340 1 0.0101412 0.0359788 0.0218103 0.0005 
1149 1 0.0152188 0.035884 0.0223597 0.00075 
1571 1 0.0127954 0.0409898 0.0214688 0.00075 
1033 1 0.0163149 0.0397219 0.021293 0.001 
1307 1 0.0206807 0.0358849 0.0205 0.0005 
1018 1 0.0170501 0.0407664 0.0205 0.0005 
973 1 0.017585 0.0398879 0.0205049 0.0005 
1148 1 0.0165729 0.0382445 0.0213206 0.0005 
1167 1 0.0165954 0.0363169 0.0212083 0.0005 
990 1 0.0220324 0.0362674 0.0210791 0.001 
1145 1 0.0175618 0.0356606 0.02075 0.00075 
1003 1 0.0197743 0.0400677 0.02075 0.00075 
374 1 0.0230511 0.0386624 0.02075 0.00075 
394 1 0.0173188 0.0388463 0.0205 0.0005 
326 1 0.023472 0.0398125 0.0205 0.0005 
650 1 0.0218325 0.0405825 0.0214993 0.0015 
848 1 0.0214978 0.0384814 0.02075 0.00075 
993 1 0.0235 0.0415047 0.0205 0.0005 
996 1 0.0171896 0.0368327 0.0205 0.0005 
892 1 0.0179458 0.0378003 0.0207745 0.00075 
856 1 0.0166053 0.0376474 0.0205037 0.0005 
1261 1 0.0234515 0.0362786 0.0205 0.0005 
986 1 0.0204185 0.0356095 0.0219127 0.00075 
1117 1 0.0183655 0.0408298 0.0207944 0.0005 
1181 1 0.0173067 0.0370403 0.0219393 0.00075 
1095 1 0.0162727 0.0378034 0.0221841 0.0005 
1268 1 0.0222401 0.0376173 0.0217165 0.0005 
1135 1 0.0206913 0.0424949 0.02075 0.00075 
1422 1 0.0189739 0.0419821 0.0221901 0.001 
584 1 0.00494409 0.0433728 0.0207526 0.00075 
579 1 0.000750169 0.0462125 0.02075 0.00075 
242 1 0.00622195 0.0457062 0.0205 0.0005 
814 1 0.00488294 0.0459791 0.0207626 0.00075 
423 1 0.00147354 0.0477865 0.0210008 0.001 
347 1 0.00587017 0.0478399 0.02075 0.00075 
855 1 0.0040956 0.0480715 0.0205 0.0005 
712 1 0.00663478 0.0496352 0.02075 0.00075 
1242 1 0.00476106 0.0473184 0.0205 0.0005 
1251 1 0.00289557 0.0477796 0.020502 0.0005 
987 1 0.00570909 0.0449976 0.0212475 0.0005 
682 1 0.00744199 0.0436333 0.0205 0.0005 
762 1 0.00050103 0.0465881 0.0219254 0.0005 
533 1 0.00766712 0.0461071 0.02075 0.00075 
495 1 0.00667629 0.0490287 0.022173 0.00075 
1387 1 0.0061905 0.0463593 0.0218778 0.001 
236 1 0.00267871 0.0445681 0.0220041 0.002 
1432 1 0.00512723 0.0431906 0.0222212 0.0005 
1596 1 0.000552078 0.0480075 0.0222558 0.0005 
1100 1 0.00823838 0.0475358 0.0210906 0.00075 
40 1 0.00828633 0.048689 0.0205 0.0005 
883 1 0.0149742 0.0460408 0.0205 0.0005 
328 1 0.0093112 0.0436652 0.0205 0.0005 
969 1 0.015928 0.0463693 0.0205293 0.0005 
405 1 0.0139633 0.0495691 0.0205 0.0005 
453 1 0.0114101 0.0463914 0.0219998 0.002 
335 1 0.0114508 0.0486636 0.0205 0.0005 
1194 1 0.0121657 0.043115 0.0205 0.0005 
1240 1 0.0138602 0.0465959 0.02075 0.00075 
1297 1 0.0147467 0.0442288 0.0207681 0.00075 
1306 1 0.014856 0.0478237 0.0208453 0.00075 
1481 1 0.015546 0.0465546 0.0223008 0.001 
1385 1 0.0157385 0.0492438 0.022233 0.00075 
1490 1 0.015955 0.0488665 0.02075 0.00075 
1030 1 0.00801973 0.0484576 0.0219546 0.0005 
1023 1 0.0182498 0.0428782 0.0205045 0.0005 
1133 1 0.0192524 0.0438966 0.02075 0.00075 
985 1 0.0164587 0.0451732 0.0205 0.0005 
1062 1 0.0230759 0.0427776 0.0214808 0.00075 
485 1 0.0232458 0.0480909 0.020756 0.00075 
499 1 0.0199178 0.0486634 0.0212524 0.00125 
804 1 0.0234954 0.0436142 0.0205 0.0005 
935 1 0.0209929 0.0443156 0.0205 0.0005 
970 1 0.0232067 0.0448494 0.02075 0.00075 
859 1 0.021633 0.0477573 0.02075 0.00075 
1097 1 0.0194896 0.0454329 0.0207499 0.00075 
1155 1 0.0201909 0.0465016 0.0205004 0.0005 
1271 1 0.02228 0.0429155 0.0205 0.0005 
1289 1 0.0190727 0.0465853 0.0205004 0.0005 
1319 1 0.0170733 0.0462666 0.0205 0.0005 
1334 1 0.0170592 0.0433647 0.0212581 0.0005 
917 1 0.023248 0.0465582 0.0207517 0.00075 
963 1 0.021996 0.0465851 0.0205022 0.0005 
1299 1 0.020986 0.0455413 0.0207504 0.00075 
1411 1 0.0192275 0.0457017 0.0223432 0.00075 
1426 1 0.0180356 0.0472373 0.0207554 0.00075 
1384 1 0.0174418 0.0491028 0.0208481 0.00075 
847 1 0.0232481 0.0441484 0.0220754 0.00075 
1494 1 0.0170971 0.047412 0.0221516 0.00075 
1088 1 0.0222323 0.0457867 0.0219554 0.001 
543 1 0.00126379 0.050013 0.0212498 0.00125 
402 1 0.00422071 0.0499416 0.0217499 0.00175 
3 1 0.0023783 0.0513138 0.0205 0.0005 
740 1 0.000505627 0.051315 0.0221409 0.0005 
354 1 0.00336456 0.0516076 0.0205 0.0005 
424 1 0.00770415 0.0506897 0.02075 0.00075 
265 1 0.00650078 0.0515939 0.0207499 0.00075 
145 1 0.00159089 0.0528697 0.021503 0.0015 
704 1 0.00334926 0.0532092 0.0205 0.0005 
788 1 0.00540055 0.0523255 0.02146 0.00075 
122 1 0.00159918 0.055318 0.0209996 0.001 
525 1 0.00167852 0.0567644 0.0205 0.0005 
230 1 0.00360164 0.0556588 0.0205 0.0005 
637 1 0.000500396 0.0562983 0.0213171 0.0005 
1382 1 0.00398611 0.0524178 0.0205 0.0005 
1421 1 0.00147732 0.0546813 0.0223686 0.0005 
1453 1 0.0062907 0.0560517 0.0205196 0.0005 
551 1 0.00296124 0.0551306 0.0220907 0.00075 
674 1 0.0063837 0.0512737 0.0223593 0.0005 
1605 1 0.00703806 0.0542388 0.0242982 0.0005 
367 1 0.00983133 0.0498259 0.0217499 0.00175 
1201 1 0.0129373 0.0502971 0.02075 0.00075 
371 1 0.0136105 0.0540295 0.0205 0.0005 
496 1 0.00910983 0.0520573 0.02075 0.00075 
977 1 0.00874025 0.053557 0.0206003 0.0005 
1151 1 0.0145098 0.0524513 0.0205 0.0005 
792 1 0.015128 0.0559292 0.02125 0.00125 
1260 1 0.00798916 0.0560078 0.0212507 0.00125 
1089 1 0.0135099 0.0557825 0.0205 0.0005 
278 1 0.0118351 0.0559032 0.0205146 0.0005 
467 1 0.0159419 0.0538374 0.0214076 0.001 
1478 1 0.0132284 0.0558911 0.0224569 0.001 
1363 1 0.0182987 0.0499549 0.0205 0.0005 
410 1 0.019287 0.0501129 0.0205 0.0005 
168 1 0.0224435 0.0508542 0.0214999 0.0015 
133 1 0.0187283 0.0516626 0.0205 0.0005 
769 1 0.0207291 0.0511163 0.0205 0.0005 
976 1 0.0171319 0.0540192 0.0205003 0.0005 
776 1 0.0183832 0.0526088 0.0205004 0.0005 
702 1 0.0221628 0.0529377 0.0205 0.0005 
415 1 0.0234835 0.0533941 0.0205014 0.0005 
431 1 0.0173705 0.0554284 0.021 0.001 
573 1 0.0201076 0.0527365 0.0215062 0.0015 
73 1 0.0216446 0.0546426 0.0210001 0.001 
470 1 0.020548 0.0555376 0.0205001 0.0005 
258 1 0.0197053 0.0560752 0.0205004 0.0005 
785 1 0.0184696 0.0540878 0.02075 0.00075 
661 1 0.0195046 0.0551634 0.0216827 0.001 
1102 1 0.0234856 0.0523942 0.0204999 0.0005 
1005 1 0.0233129 0.0542052 0.0210601 0.0005 
1146 1 0.0187267 0.0558599 0.0205 0.0005 
690 1 0.019735 0.051008 0.0205 0.0005 
829 1 0.0175024 0.0530572 0.021267 0.00075 
777 1 0.0202165 0.0544786 0.0205 0.0005 
1200 1 0.0203511 0.0505091 0.0213467 0.0005 
1169 1 0.0173334 0.056171 0.0223039 0.0005 
1009 1 0.0209132 0.0546292 0.0223159 0.0005 
112 1 0.0232489 0.055443 0.0212335 0.00075 
1456 1 0.0225402 0.0561654 0.0204999 0.0005 
866 1 0.000532697 0.0568739 0.0205 0.0005 
194 1 0.000966913 0.0575898 0.0215229 0.00075 
357 1 0.000500627 0.0581568 0.0205 0.0005 
567 1 0.00165881 0.0578191 0.0205 0.0005 
489 1 0.00798144 0.0594663 0.0217499 0.00175 
773 1 0.00599884 0.0594621 0.0205 0.0005 
510 1 0.00125424 0.0595501 0.0212499 0.00125 
331 1 0.000499997 0.0612657 0.0205 0.0005 
94 1 0.00649155 0.0617939 0.0209999 0.001 
1199 1 0.00498093 0.062408 0.0205 0.0005 
361 1 0.00731789 0.0630076 0.0205 0.0005 
116 1 0.00789088 0.0619985 0.0205 0.0005 
378 1 0.00100212 0.0628447 0.0210034 0.001 
899 1 0.00543547 0.0633088 0.0205 0.0005 
379 1 0.00641386 0.0635159 0.0205 0.0005 
267 1 0.000512898 0.0615055 0.0214707 0.0005 
665 1 0.00314751 0.0616002 0.0215 0.0015 
487 1 0.00426986 0.0581476 0.0224451 0.00225 
936 1 0.00832257 0.0575529 0.0205001 0.0005 
1054 1 0.00974513 0.0580956 0.0214066 0.0005 
781 1 0.00855777 0.0612535 0.0205 0.0005 
24 1 0.00887904 0.0631812 0.0213823 0.00125 
923 1 0.0104475 0.0573354 0.0205 0.0005 
88 1 0.00981342 0.0585231 0.0205 0.0005 
1156 1 0.0145694 0.0575916 0.0211947 0.0005 
907 1 0.00899284 0.0614754 0.0217533 0.0005 
1115 1 0.0148867 0.0582391 0.0205 0.0005 
147 1 0.0108238 0.0582624 0.0205 0.0005 
771 1 0.0102747 0.0637606 0.0204999 0.0005 
11 1 0.0118883 0.0571244 0.0207759 0.00075 
81 1 0.0118295 0.0598129 0.0207504 0.00075 
493 1 0.0128575 0.0605156 0.0205041 0.0005 
760 1 0.0141832 0.062877 0.0205 0.0005 
1010 1 0.0147613 0.0611826 0.0205 0.0005 
580 1 0.0142705 0.059974 0.0207602 0.00075 
1127 1 0.0103971 0.0594707 0.0210747 0.00075 
1171 1 0.00978541 0.0614966 0.0207873 0.00075 
593 1 0.01347 0.057048 0.02075 0.00075 
1218 1 0.0106052 0.0605616 0.0205001 0.0005 
1237 1 0.0116615 0.0584665 0.0210465 0.0005 
1327 1 0.0148061 0.0588355 0.0216171 0.00075 
1322 1 0.0125133 0.0581754 0.0205023 0.0005 
1255 1 0.0116673 0.061385 0.0205229 0.0005 
1354 1 0.0129988 0.0616503 0.021555 0.001 
1393 1 0.0151863 0.0607495 0.0220517 0.0005 
1175 1 0.0130254 0.0589042 0.0217165 0.001 
778 1 0.0156638 0.0623164 0.0205843 0.0005 
711 1 0.015952 0.0579117 0.0205013 0.0005 
716 1 0.0158098 0.0611447 0.0205112 0.0005 
1593 1 0.010878 0.0626583 0.0215758 0.00075 
649 1 0.0166454 0.0568685 0.0205096 0.0005 
1031 1 0.0191417 0.0567922 0.0222167 0.00075 
1248 1 0.0161191 0.0607639 0.0214409 0.0005 
1079 1 0.0176691 0.0572275 0.0205 0.0005 
8 1 0.0179369 0.057272 0.0214632 0.0005 
653 1 0.0174258 0.058281 0.0205 0.0005 
306 1 0.0189769 0.0570595 0.0207499 0.00075 
48 1 0.0209131 0.0570411 0.0213196 0.00125 
863 1 0.0232473 0.0584951 0.0212485 0.00075 
414 1 0.0163873 0.0592616 0.0210005 0.001 
445 1 0.0227836 0.0604288 0.0205071 0.0005 
26 1 0.017861 0.0630006 0.0217543 0.00175 
222 1 0.0218322 0.0600631 0.0205 0.0005 
186 1 0.0234893 0.0613762 0.0205 0.0005 
455 1 0.0190317 0.0593499 0.0217499 0.00175 
129 1 0.019498 0.0620971 0.0205 0.0005 
45 1 0.0224716 0.0626508 0.0212499 0.00125 
313 1 0.020665 0.0610209 0.02075 0.00075 
477 1 0.0209491 0.0622225 0.0205 0.0005 
595 1 0.0171594 0.0608182 0.02075 0.00075 
851 1 0.0207462 0.0625006 0.0215108 0.0005 
38 1 0.0206221 0.0634899 0.02075 0.00075 
502 1 0.0165406 0.0575203 0.0219818 0.001 
1045 1 0.0171052 0.0607522 0.0221341 0.0005 
438 1 0.0204652 0.0623974 0.0224786 0.0005 
421 1 0.0020364 0.0639151 0.0205 0.0005 
244 1 0.000503022 0.0641674 0.0205 0.0005 
446 1 0.00404513 0.0647299 0.0217506 0.00175 
381 1 0.00138959 0.0647582 0.0211582 0.00075 
165 1 0.00114513 0.065792 0.0204999 0.0005 
619 1 0.00673832 0.064893 0.0210023 0.001 
1076 1 0.00553487 0.0662541 0.0205186 0.0005 
105 1 0.00050025 0.0665562 0.0205 0.0005 
218 1 0.00225237 0.0666771 0.021 0.001 
694 1 0.00446984 0.067339 0.020999 0.001 
806 1 0.00631516 0.0678145 0.02075 0.00075 
634 1 0.000824583 0.0676868 0.0209242 0.00075 
948 1 0.00604739 0.0703357 0.0204992 0.0005 
264 1 0.000500104 0.0688176 0.0205 0.0005 
601 1 0.00257069 0.0693037 0.02175 0.00175 
7 1 0.000500082 0.0698181 0.0205 0.0005 
86 1 0.00741002 0.0706544 0.0210366 0.001 
96 1 0.000510724 0.0704742 0.0220134 0.0005 
953 1 0.00522418 0.0691894 0.0210043 0.001 
894 1 0.00655977 0.066326 0.0205386 0.0005 
1163 1 0.000499804 0.0666815 0.021952 0.0005 
1034 1 0.00307062 0.0671701 0.0223001 0.0005 
854 1 0.000598813 0.068247 0.0220188 0.0005 
574 1 0.00815093 0.0645052 0.0204998 0.0005 
532 1 0.00835962 0.0683878 0.0214999 0.0015 
667 1 0.00844486 0.0659397 0.0209999 0.001 
373 1 0.0114825 0.0644815 0.02075 0.00075 
860 1 0.010068 0.0649935 0.02075 0.00075 
703 1 0.0129304 0.0661027 0.0205 0.0005 
926 1 0.0129564 0.0675059 0.0205 0.0005 
187 1 0.011053 0.0703397 0.0205007 0.0005 
736 1 0.010503 0.068619 0.0205 0.0005 
103 1 0.0111484 0.0669001 0.0214999 0.0015 
325 1 0.0139021 0.069041 0.0205 0.0005 
1071 1 0.0143432 0.0698377 0.0215299 0.0005 
720 1 0.00995282 0.0697884 0.02075 0.00075 
1185 1 0.0142448 0.0702288 0.0205 0.0005 
102 1 0.0148737 0.0694504 0.0205002 0.0005 
1283 1 0.0144209 0.0679965 0.0205 0.0005 
1039 1 0.0115867 0.0692099 0.02075 0.00075 
1304 1 0.0129404 0.0687229 0.0205 0.0005 
817 1 0.0131063 0.0683872 0.021956 0.001 