ITEM: TIMESTEP
220000
ITEM: NUMBER OF ATOMS
1980
ITEM: BOX BOUNDS mm mm mm
-2.4e-06 0.0240024
-7.8e-06 0.0780078
-3e-06 0.030003
ITEM: ATOMS id type x y z radius 
324 1 0.00766526 0.00388736 0.0219999 0.002 
291 1 0.00273403 0.00157139 0.0214999 0.0015 
368 1 0.00050069 0.00135751 0.0205 0.0005 
784 1 0.00534443 0.00304041 0.02075 0.00075 
32 1 0.00526114 0.000501815 0.0205 0.0005 
241 1 0.00435587 0.00226105 0.0205 0.0005 
815 1 0.00110096 0.0021573 0.0205 0.0005 
448 1 0.00370045 0.00301679 0.0205 0.0005 
300 1 0.000500042 0.000499979 0.0210144 0.0005 
442 1 0.00104596 0.00357624 0.0209999 0.001 
816 1 0.00580405 0.00497911 0.0205 0.0005 
710 1 0.00409533 0.000499988 0.0205 0.0005 
527 1 0.00050005 0.00488086 0.0205 0.0005 
256 1 0.00051775 0.00607526 0.0205 0.0005 
870 1 0.00771835 0.00588662 0.0204999 0.0005 
100 1 0.00447295 0.00257841 0.0215178 0.0005 
153 1 0.00467639 0.00131383 0.0205 0.0005 
486 1 0.0036121 0.00514211 0.0222497 0.00225 
722 1 0.00149355 0.0050002 0.0205 0.0005 
864 1 0.00460731 0.000710596 0.0213341 0.0005 
503 1 0.000499992 0.00494226 0.021498 0.0005 
561 1 0.00592669 0.00165451 0.02075 0.00075 
501 1 0.00593295 0.000501069 0.0212407 0.0005 
64 1 0.00635483 0.00639368 0.0209998 0.001 
954 1 0.00660474 0.000503346 0.0205 0.0005 
274 1 0.00775339 0.00688596 0.0204999 0.0005 
75 1 0.001565 0.0067415 0.0207499 0.00075 
1195 1 0.00775632 0.00139585 0.0218158 0.0005 
390 1 0.000499991 0.00594221 0.0214909 0.0005 
842 1 0.00624827 0.00588992 0.0224811 0.0005 
887 1 0.00650668 0.0068539 0.0224193 0.0005 
380 1 0.00498486 0.00682043 0.0205 0.0005 
998 1 0.000813926 0.00703259 0.0220153 0.00075 
979 1 0.00735383 0.00632435 0.0224627 0.0005 
587 1 0.00050003 0.00425286 0.0222224 0.0005 
370 1 0.00785649 0.000750752 0.0207499 0.00075 
1492 1 0.000500278 0.00526862 0.0224433 0.0005 
28 1 0.000759469 0.000755731 0.0222101 0.00075 
121 1 0.0086388 0.00641983 0.0205 0.0005 
228 1 0.00892054 0.00545983 0.0205 0.0005 
490 1 0.00967219 0.00430288 0.0205 0.0005 
199 1 0.0118003 0.00287739 0.0205 0.0005 
395 1 0.010869 0.00239804 0.0205009 0.0005 
474 1 0.01371 0.00160855 0.0207494 0.00075 
282 1 0.0105748 0.00138054 0.0205 0.0005 
590 1 0.0100557 0.000500002 0.0205 0.0005 
176 1 0.0129593 0.000502217 0.0205 0.0005 
289 1 0.0110556 0.000499817 0.0204998 0.0005 
362 1 0.00905562 0.000499911 0.0205 0.0005 
783 1 0.0108991 0.00376943 0.0205002 0.0005 
51 1 0.012981 0.00262243 0.0205 0.0005 
233 1 0.00956361 0.00207145 0.02075 0.00075 
217 1 0.0107127 0.00475199 0.0205 0.0005 
636 1 0.0118946 0.00621629 0.0205018 0.0005 
549 1 0.0100816 0.00449227 0.0213924 0.0005 
126 1 0.0124378 0.00456585 0.0214999 0.0015 
307 1 0.00832408 0.00193223 0.0205 0.0005 
676 1 0.0099952 0.000956584 0.021662 0.00075 
209 1 0.0138404 0.00563521 0.0205 0.0005 
730 1 0.00867997 0.00164625 0.0215254 0.0005 
764 1 0.0103051 0.00628364 0.0212497 0.00125 
311 1 0.0141274 0.00664238 0.0216971 0.001 
192 1 0.0155845 0.0068475 0.02075 0.00075 
763 1 0.00957705 0.00329924 0.0205 0.0005 
66 1 0.0142063 0.00466941 0.0205 0.0005 
61 1 0.0148575 0.00554321 0.0206421 0.0005 
108 1 0.0148148 0.00320675 0.0212495 0.00125 
581 1 0.0121125 0.0067215 0.022056 0.00075 
89 1 0.00884553 0.000499979 0.021478 0.0005 
155 1 0.0119103 0.0015372 0.02162 0.00125 
178 1 0.0149405 0.000750063 0.02075 0.00075 
364 1 0.0103841 0.00312218 0.0214379 0.00075 
161 1 0.0232486 0.000751205 0.02075 0.00075 
159 1 0.0228304 0.0034059 0.0205 0.0005 
204 1 0.0235 0.00415301 0.0204999 0.0005 
219 1 0.0214714 0.000999936 0.0209999 0.001 
333 1 0.0232502 0.00382778 0.0216805 0.00075 
142 1 0.0232498 0.00225285 0.02075 0.00075 
200 1 0.0201826 0.00270046 0.0207497 0.00075 
340 1 0.0219378 0.00453342 0.0207501 0.00075 
452 1 0.0235 0.00515296 0.0204999 0.0005 
518 1 0.0190203 0.00096432 0.02075 0.00075 
185 1 0.0164744 0.0050922 0.0212497 0.00125 
31 1 0.0169559 0.00149953 0.0214998 0.0015 
123 1 0.0228571 0.00104738 0.0224413 0.001 
273 1 0.0217629 0.0029316 0.0214644 0.001 
113 1 0.0173705 0.00336218 0.0205 0.0005 
544 1 0.0186199 0.00446106 0.021 0.001 
577 1 0.023215 0.00558747 0.0216367 0.00075 
652 1 0.0180564 0.00559815 0.0218009 0.0005 
290 1 0.0186832 0.0027304 0.0207498 0.00075 
281 1 0.0201496 0.00386269 0.0216975 0.00075 
190 1 0.0176271 0.00664826 0.0207499 0.00075 
57 1 0.0204589 0.00608256 0.0214999 0.0015 
143 1 0.0226013 0.00565024 0.0205 0.0005 
853 1 0.0186997 0.00588387 0.0205 0.0005 
106 1 0.0221202 0.00503544 0.0218813 0.0005 
1012 1 0.0183518 0.0068356 0.0220498 0.00075 
109 1 0.0188365 0.00689247 0.0205 0.0005 
1359 1 0.00286429 0.00724768 0.020501 0.0005 
588 1 0.00385901 0.00735674 0.0205 0.0005 
360 1 0.00651827 0.0122448 0.0205 0.0005 
154 1 0.00472946 0.00821969 0.0207504 0.00075 
13 1 0.000499745 0.00734519 0.0204999 0.0005 
879 1 0.00584919 0.00772369 0.0205 0.0005 
137 1 0.000676836 0.00832922 0.0205 0.0005 
44 1 0.00516966 0.00972889 0.02075 0.00075 
401 1 0.00585103 0.0112516 0.0218687 0.00125 
1166 1 0.00556502 0.00768541 0.0218772 0.00075 
1234 1 0.00586202 0.00885658 0.0214679 0.0005 
323 1 0.00249833 0.0092359 0.0219998 0.002 
820 1 0.000499886 0.00931333 0.0204999 0.0005 
1067 1 0.00758125 0.0127117 0.0205 0.0005 
713 1 0.00234323 0.0112377 0.0205 0.0005 
881 1 0.00050258 0.0103218 0.0205 0.0005 
943 1 0.00322397 0.0117109 0.0204996 0.0005 
673 1 0.00421321 0.0109893 0.0207502 0.00075 
174 1 0.00100226 0.0116637 0.0210191 0.001 
447 1 0.00610063 0.00869693 0.0205 0.0005 
1070 1 0.00771541 0.0072457 0.0216964 0.00075 
737 1 0.00549314 0.0122926 0.0205 0.0005 
646 1 0.00144763 0.0135135 0.0205 0.0005 
508 1 0.000508547 0.01299 0.0205 0.0005 
611 1 0.0079613 0.0137828 0.0205 0.0005 
70 1 0.000499998 0.01399 0.0205 0.0005 
35 1 0.00794866 0.00948344 0.0216807 0.0015 
872 1 0.0074918 0.0114891 0.02075 0.00075 
439 1 0.00637475 0.0138413 0.0212499 0.00125 
891 1 0.00692675 0.00776451 0.0205 0.0005 
427 1 0.00446924 0.0077687 0.022478 0.0005 
1190 1 0.00498575 0.00881517 0.0219564 0.0005 
171 1 0.0127349 0.00711771 0.02075 0.00075 
275 1 0.0137101 0.00825754 0.02075 0.00075 
46 1 0.008826 0.00763025 0.02075 0.00075 
556 1 0.0133583 0.00971688 0.02075 0.00075 
287 1 0.0116646 0.0105073 0.0205 0.0005 
865 1 0.0137043 0.0115257 0.0205 0.0005 
756 1 0.0114242 0.00879121 0.0214999 0.0015 
318 1 0.0135382 0.00820844 0.0222398 0.00075 
686 1 0.00942372 0.00879154 0.0205 0.0005 
10 1 0.0149511 0.00817796 0.0205785 0.0005 
569 1 0.0124921 0.0107799 0.0209909 0.0005 
252 1 0.00867838 0.0109226 0.0204996 0.0005 
188 1 0.0148643 0.0129221 0.0214998 0.0015 
772 1 0.0122283 0.0116163 0.0205 0.0005 
709 1 0.00986903 0.0102351 0.02075 0.00075 
1061 1 0.0111667 0.011375 0.0205 0.0005 
110 1 0.0131195 0.0124842 0.0205 0.0005 
1118 1 0.00987349 0.00998296 0.0219742 0.0005 
59 1 0.0116266 0.0124158 0.0204999 0.0005 
974 1 0.0117968 0.013433 0.0205 0.0005 
734 1 0.0123769 0.0123668 0.0214984 0.00075 
968 1 0.0117831 0.0109516 0.0220168 0.00075 
62 1 0.00964046 0.0126753 0.0219998 0.002 
1238 1 0.00965634 0.00786458 0.0216544 0.0005 
1028 1 0.0132342 0.0105742 0.0219757 0.00075 
1653 1 0.0145987 0.00930147 0.0211763 0.0005 
1846 1 0.0159895 0.00801223 0.0205 0.0005 
80 1 0.0154365 0.0105315 0.0209999 0.001 
1922 1 0.0157964 0.00810895 0.0215391 0.0005 
714 1 0.0162932 0.0119395 0.0205 0.0005 
342 1 0.0169477 0.0120375 0.0215604 0.00075 
319 1 0.0215848 0.00748373 0.0205 0.0005 
6 1 0.0229755 0.00722489 0.0209999 0.001 
293 1 0.0189885 0.0106059 0.0217494 0.00175 
735 1 0.0211828 0.0102573 0.0213966 0.0005 
308 1 0.0206253 0.00852637 0.0209998 0.001 
49 1 0.0175714 0.00937718 0.0205 0.0005 
146 1 0.0194869 0.00766611 0.0205 0.0005 
578 1 0.0229995 0.00928795 0.021 0.001 
139 1 0.0171946 0.0136769 0.0209999 0.001 
90 1 0.018938 0.00811518 0.0215294 0.00075 
71 1 0.0212063 0.00981568 0.0204999 0.0005 
659 1 0.0176445 0.00814811 0.02075 0.00075 
967 1 0.0166138 0.0097336 0.0205001 0.0005 
130 1 0.0218862 0.0119798 0.0204995 0.0005 
41 1 0.0221168 0.0107776 0.0207498 0.00075 
231 1 0.0234981 0.0106488 0.0205 0.0005 
279 1 0.0235001 0.00825044 0.0219606 0.0005 
693 1 0.0217266 0.00774142 0.0216508 0.0005 
725 1 0.02325 0.0113422 0.0215545 0.00075 
697 1 0.0208696 0.0108073 0.0205 0.0005 
330 1 0.0229564 0.0125743 0.0207503 0.00075 
78 1 0.0228948 0.0138535 0.0205 0.0005 
800 1 0.0204848 0.0117319 0.0205 0.0005 
538 1 0.0234999 0.0125568 0.0218863 0.0005 
1236 1 0.0189916 0.0129028 0.0212274 0.0005 
812 1 0.0221301 0.0118727 0.0219032 0.0005 
944 1 0.0235001 0.0135131 0.0213708 0.0005 
794 1 0.0181129 0.0127205 0.0217038 0.0005 
592 1 0.0184503 0.0124113 0.0205 0.0005 
910 1 0.021664 0.00936701 0.0221297 0.00075 
523 1 0.0186005 0.0134692 0.0205 0.0005 
956 1 0.0194865 0.0124213 0.0205 0.0005 
350 1 0.020915 0.013412 0.0215013 0.0015 
1193 1 0.018788 0.0139001 0.0213826 0.0005 
345 1 0.0193452 0.0141626 0.0205 0.0005 
639 1 0.0228314 0.0139274 0.0220799 0.0005 
1899 1 0.0166285 0.0088602 0.0209881 0.0005 
1138 1 0.02325 0.0101709 0.0224918 0.00075 
888 1 0.00384564 0.014969 0.0204999 0.0005 
550 1 0.000630234 0.0193516 0.0205 0.0005 
1 1 0.0068079 0.0157323 0.0207499 0.00075 
529 1 0.00127628 0.0159809 0.0212533 0.00125 
269 1 0.00624669 0.0180224 0.0213307 0.00125 
19 1 0.00426768 0.0164941 0.0212499 0.00125 
1077 1 0.00584881 0.0165185 0.0205 0.0005 
877 1 0.00738905 0.0203189 0.0205 0.0005 
1060 1 0.00724011 0.0161579 0.021963 0.0005 
1004 1 0.00487265 0.0193583 0.02075 0.00075 
1570 1 0.00684948 0.0194398 0.0205 0.0005 
688 1 0.000500986 0.0199393 0.0212986 0.0005 
896 1 0.0059189 0.0200884 0.0205 0.0005 
1660 1 0.00435549 0.0180802 0.0205 0.0005 
972 1 0.00598843 0.0157503 0.022006 0.00075 
223 1 0.00244685 0.0188801 0.0217499 0.00175 
700 1 0.00430537 0.0207486 0.02075 0.00075 
748 1 0.0078383 0.0145204 0.022039 0.0005 
1416 1 0.0024772 0.0209555 0.0205 0.0005 
196 1 0.000539744 0.0142386 0.0220291 0.0005 
436 1 0.00552929 0.016845 0.0224108 0.0005 
1196 1 0.00801179 0.0169737 0.0224327 0.0005 
695 1 0.00847095 0.0148975 0.02075 0.00075 
54 1 0.00829021 0.0166277 0.021 0.001 
786 1 0.0090488 0.0152609 0.0220602 0.0005 
180 1 0.00915263 0.0193263 0.0219987 0.002 
221 1 0.010707 0.0162291 0.0214999 0.0015 
118 1 0.0132076 0.0151067 0.0212499 0.00125 
198 1 0.0158607 0.0191192 0.0212499 0.00125 
717 1 0.0123458 0.0183571 0.0205005 0.0005 
1232 1 0.00972317 0.0147705 0.0205 0.0005 
934 1 0.0137288 0.0196449 0.0207518 0.00075 
1310 1 0.0128439 0.0174715 0.0205 0.0005 
1212 1 0.0143672 0.0186001 0.0204999 0.0005 
1338 1 0.0158613 0.0166082 0.0205 0.0005 
838 1 0.013844 0.017783 0.0216435 0.001 
624 1 0.0125002 0.0165323 0.0205 0.0005 
1035 1 0.0113462 0.018305 0.0205 0.0005 
43 1 0.0149304 0.0149578 0.0205 0.0005 
1592 1 0.0115485 0.0196144 0.0205019 0.0005 
1577 1 0.014765 0.0203246 0.0205 0.0005 
1636 1 0.0129377 0.0211851 0.0210064 0.001 
982 1 0.0156369 0.0209587 0.0205 0.0005 
1264 1 0.0100047 0.0211454 0.0205 0.0005 
1757 1 0.0147461 0.0200584 0.0222942 0.0005 
1842 1 0.0143776 0.0212302 0.0214965 0.0005 
741 1 0.0181769 0.0148383 0.0215018 0.0005 
450 1 0.0182639 0.0146025 0.0205 0.0005 
189 1 0.0162064 0.0156672 0.0205 0.0005 
1311 1 0.0170487 0.0203843 0.0205 0.0005 
947 1 0.0174778 0.0188733 0.0204994 0.0005 
542 1 0.0182756 0.0160475 0.0218458 0.00075 
272 1 0.023498 0.0146529 0.0205 0.0005 
260 1 0.0176825 0.0174746 0.0209999 0.001 
591 1 0.022379 0.015278 0.0207517 0.00075 
465 1 0.018773 0.0165739 0.0205 0.0005 
719 1 0.0191713 0.0154197 0.0207676 0.00075 
628 1 0.0234999 0.0161022 0.0205 0.0005 
42 1 0.0226996 0.0171103 0.0207556 0.00075 
747 1 0.0211891 0.015569 0.0205 0.0005 
813 1 0.0201573 0.0161399 0.0205 0.0005 
787 1 0.0191477 0.0175011 0.0205 0.0005 
492 1 0.0200979 0.0171425 0.0205 0.0005 
238 1 0.023499 0.0180366 0.0205 0.0005 
1216 1 0.019645 0.0165972 0.0215787 0.00075 
1230 1 0.0174179 0.0154882 0.0207499 0.00075 
566 1 0.0212501 0.0175973 0.0207502 0.00075 
1333 1 0.0216715 0.0164469 0.0204999 0.0005 
1091 1 0.0197421 0.0183052 0.0205028 0.0005 
1398 1 0.0206237 0.0206021 0.0205 0.0005 
1189 1 0.0234998 0.0145012 0.0215265 0.0005 
1427 1 0.020336 0.0150443 0.0205 0.0005 
898 1 0.0198266 0.0179026 0.0214218 0.0005 
1253 1 0.0192205 0.014669 0.0218529 0.0005 
1452 1 0.0202848 0.0194079 0.0207504 0.00075 
1488 1 0.0187061 0.0189706 0.0207554 0.00075 
1124 1 0.0234974 0.0154705 0.0212769 0.0005 
1137 1 0.0206975 0.01759 0.0218719 0.0005 
1020 1 0.0224288 0.0194003 0.0214999 0.0015 
1401 1 0.021313 0.0161275 0.0219209 0.001 
1298 1 0.0200948 0.0152327 0.0216095 0.0005 
1170 1 0.0232416 0.0164618 0.0219952 0.00075 
1831 1 0.0176203 0.019334 0.0213749 0.0005 
1796 1 0.0200149 0.0190526 0.0219218 0.0005 
957 1 0.023497 0.0207677 0.0205 0.0005 
1320 1 0.0191673 0.0204078 0.0207499 0.00075 
1598 1 0.0201968 0.0204239 0.0214845 0.0005 
1437 1 0.0235 0.0209706 0.0221214 0.0005 
1184 1 0.0234693 0.0177065 0.0219165 0.0005 
1738 1 0.0179814 0.0209923 0.0207037 0.0005 
1692 1 0.0207816 0.0185085 0.0223513 0.0005 
1828 1 0.0192838 0.0205811 0.0221815 0.0005 
678 1 0.00108145 0.0212897 0.0209998 0.001 
1293 1 0.00249281 0.021936 0.0215206 0.0005 
482 1 0.000521686 0.0226417 0.0205 0.0005 
12 1 0.000851715 0.0238117 0.0208069 0.00075 
600 1 0.00640077 0.021596 0.0212499 0.00125 
952 1 0.00500608 0.0244183 0.0205 0.0005 
1081 1 0.00768742 0.0248884 0.0205 0.0005 
904 1 0.00572252 0.0251124 0.0205733 0.0005 
1439 1 0.00573387 0.0234333 0.02075 0.00075 
831 1 0.00366791 0.0251859 0.0209999 0.001 
534 1 0.000757565 0.0253154 0.0207711 0.00075 
1423 1 0.00323981 0.0271591 0.0205 0.0005 
1406 1 0.00275795 0.0262816 0.0205 0.0005 
483 1 0.000506085 0.0268918 0.0205011 0.0005 
1394 1 0.00764264 0.023457 0.0209998 0.001 
1483 1 0.00471752 0.0221628 0.0205 0.0005 
1512 1 0.00217991 0.0257721 0.021141 0.0005 
752 1 0.0040511 0.0266555 0.0208061 0.0005 
919 1 0.00751737 0.0277515 0.0217529 0.00175 
1578 1 0.00201956 0.0233957 0.0219453 0.0005 
978 1 0.00755368 0.0258829 0.0205 0.0005 
1805 1 0.00246782 0.0235071 0.0207541 0.00075 
1576 1 0.000499898 0.0264567 0.0214073 0.0005 
1373 1 0.00493052 0.0262302 0.0216427 0.00075 
1860 1 0.00339968 0.0226213 0.0206363 0.0005 
946 1 0.00612322 0.0247697 0.022458 0.00125 
1650 1 0.00675486 0.0231595 0.022172 0.0005 
1625 1 0.000523056 0.0238335 0.0221875 0.0005 
1455 1 0.00126356 0.0256953 0.0224862 0.001 
1942 1 0.00368458 0.0221252 0.0224204 0.00075 
338 1 0.00175399 0.0282998 0.0217498 0.00175 
1164 1 0.0111992 0.0214286 0.02075 0.00075 
1144 1 0.00885279 0.0218174 0.0219901 0.0005 
1697 1 0.00874778 0.0214804 0.020511 0.0005 
780 1 0.0123893 0.0234429 0.0205001 0.0005 
353 1 0.0137513 0.0235156 0.0205 0.0005 
1294 1 0.0105515 0.0238125 0.0205 0.0005 
1180 1 0.0106423 0.0225205 0.0205 0.0005 
1208 1 0.00925172 0.0254648 0.0205 0.0005 
1462 1 0.0115412 0.0241424 0.0205 0.0005 
1467 1 0.0122343 0.0224144 0.0205 0.0005 
1343 1 0.00922701 0.022757 0.0207499 0.00075 
1552 1 0.0111672 0.0232173 0.0214105 0.00075 
1563 1 0.0154161 0.0248367 0.0205 0.0005 
1602 1 0.0126248 0.0252292 0.0205008 0.0005 
1621 1 0.0129849 0.0242656 0.0212398 0.00075 
861 1 0.0140381 0.0252238 0.02075 0.00075 
1643 1 0.00890249 0.02649 0.0205004 0.0005 
1539 1 0.01329 0.0225673 0.0205 0.0005 
1330 1 0.0142217 0.0247259 0.0218888 0.0005 
1192 1 0.0149689 0.0260626 0.0205 0.0005 
1041 1 0.0109506 0.0258504 0.0214998 0.0015 
1350 1 0.0144135 0.0213118 0.0204999 0.0005 
1614 1 0.00940641 0.0242616 0.0208248 0.00075 
1775 1 0.0150038 0.0226203 0.0215079 0.0005 
1693 1 0.0141236 0.0224701 0.0210479 0.0005 
1618 1 0.00878725 0.0258809 0.0212922 0.0005 
1698 1 0.00797448 0.0250261 0.0217193 0.00075 
1221 1 0.013705 0.023241 0.0220706 0.00075 
1915 1 0.0132444 0.0268799 0.0205012 0.0005 
1017 1 0.01591 0.0222017 0.0207506 0.00075 
1869 1 0.00987758 0.0279514 0.0207393 0.0005 
1601 1 0.0107347 0.0215838 0.0223873 0.00075 
144 1 0.0163857 0.0259958 0.0209999 0.001 
152 1 0.019605 0.0247293 0.0205 0.0005 
1292 1 0.0187417 0.0237488 0.0207625 0.00075 
512 1 0.0222131 0.0282603 0.0205 0.0005 
862 1 0.0176681 0.0276863 0.0205 0.0005 
1288 1 0.0182222 0.0220967 0.0205028 0.0005 
1105 1 0.0215754 0.0213316 0.0205 0.0005 
1048 1 0.0200944 0.0217043 0.0207608 0.00075 
1415 1 0.0214265 0.0227196 0.0205 0.0005 
1087 1 0.0234999 0.0263819 0.0205 0.0005 
1176 1 0.0206755 0.026408 0.02075 0.00075 
1269 1 0.0230899 0.023735 0.02075 0.00075 
1507 1 0.0234989 0.0269635 0.0214077 0.0005 
1574 1 0.0234997 0.0273831 0.0205 0.0005 
1472 1 0.0231342 0.0252328 0.0208311 0.00075 
1590 1 0.021859 0.0243248 0.0205785 0.0005 
1634 1 0.0203172 0.0234933 0.02075 0.00075 
908 1 0.0220999 0.0236722 0.0215106 0.0005 
1219 1 0.0229436 0.0220262 0.0210999 0.001 
1202 1 0.0215442 0.0213891 0.0215645 0.0005 
1870 1 0.0162266 0.0282322 0.0215211 0.00075 
1646 1 0.0188881 0.0215966 0.0210698 0.0005 
1927 1 0.0194324 0.0266774 0.0217713 0.0005 
1897 1 0.0198352 0.0250864 0.0223422 0.00075 
1370 1 0.02325 0.0282636 0.0213523 0.00075 
1648 1 0.018105 0.02258 0.0223191 0.00125 
1786 1 0.0173686 0.0282613 0.0223446 0.0005 
162 1 0.000501526 0.0314114 0.0205125 0.0005 
259 1 0.0017549 0.0325677 0.0205 0.0005 
522 1 0.00074957 0.0332924 0.0207499 0.00075 
672 1 0.00536823 0.034536 0.02075 0.00075 
348 1 0.00205702 0.03019 0.0205 0.0005 
337 1 0.00300111 0.0327483 0.02075 0.00075 
897 1 0.000529646 0.0345067 0.0205 0.0005 
980 1 0.00685063 0.0295599 0.0205 0.0005 
991 1 0.00470362 0.0286656 0.0212498 0.00125 
638 1 0.00414116 0.0341945 0.0215456 0.00075 
925 1 0.00545676 0.031985 0.0212499 0.00125 
1103 1 0.0058731 0.0298793 0.0205 0.0005 
506 1 0.000499695 0.0339701 0.02177 0.0005 
1480 1 0.00714712 0.0310387 0.0207527 0.00075 
1084 1 0.00204692 0.0313811 0.0209316 0.00075 
1355 1 0.00202993 0.0336558 0.0207501 0.0005 
1143 1 0.00347313 0.0301744 0.02075 0.00075 
1451 1 0.0051237 0.0303393 0.0218705 0.0005 
412 1 0.00101186 0.0326999 0.0223807 0.001 
1285 1 0.00078682 0.0307152 0.0215322 0.00075 
1607 1 0.00288086 0.0301671 0.0223134 0.0005 
505 1 0.00890163 0.0311779 0.0205 0.0005 
261 1 0.0134439 0.0316949 0.0205 0.0005 
886 1 0.009411 0.0331852 0.0205002 0.0005 
138 1 0.00810824 0.0299155 0.0209264 0.0005 
984 1 0.0123526 0.0285026 0.0214999 0.0015 
1249 1 0.0147302 0.0317867 0.02075 0.00075 
1154 1 0.0116383 0.0342211 0.0205 0.0005 
609 1 0.0128174 0.0333314 0.0205 0.0005 
1134 1 0.0091691 0.0344066 0.02075 0.00075 
1340 1 0.0104266 0.0349185 0.0205 0.0005 
1678 1 0.0140794 0.0342287 0.0205011 0.0005 
924 1 0.012604 0.0344814 0.0205 0.0005 
1762 1 0.0133126 0.0342 0.0211476 0.0005 
1703 1 0.0142746 0.030349 0.0207692 0.0005 
1095 1 0.0149901 0.0342053 0.0210055 0.0005 
1872 1 0.0106288 0.0323306 0.0214226 0.00125 
1167 1 0.0155775 0.0348762 0.0205 0.0005 
1815 1 0.0103792 0.0346188 0.0220128 0.0005 
1348 1 0.015635 0.0305518 0.0205 0.0005 
1818 1 0.0140944 0.0299358 0.0217066 0.0005 
1594 1 0.0148827 0.0353907 0.0218134 0.0005 
1935 1 0.00987931 0.0308779 0.0223472 0.0005 
1943 1 0.0127138 0.0319534 0.0212374 0.0005 
1720 1 0.0137002 0.0315927 0.0223494 0.001 
1409 1 0.0182598 0.0285036 0.0209429 0.0005 
1106 1 0.0200217 0.0287171 0.0212509 0.00125 
1113 1 0.0191135 0.0304272 0.0207501 0.00075 
1361 1 0.0172092 0.0293839 0.02075 0.00075 
1044 1 0.0219207 0.0303466 0.0212517 0.00125 
557 1 0.0209022 0.0340216 0.0212509 0.00125 
1015 1 0.0229063 0.0291112 0.0205 0.0005 
698 1 0.016899 0.0310025 0.02075 0.00075 
304 1 0.0224514 0.0318351 0.0205 0.0005 
1083 1 0.0162454 0.0329984 0.0212499 0.00125 
1142 1 0.0224991 0.0347119 0.0205 0.0005 
1335 1 0.017794 0.0326805 0.0204998 0.0005 
1273 1 0.0230574 0.0347343 0.0213293 0.0005 
1414 1 0.0235 0.0343932 0.0205 0.0005 
1016 1 0.0232429 0.032788 0.02075 0.00075 
959 1 0.0192935 0.0343788 0.0205 0.0005 
1531 1 0.0197326 0.0328489 0.0205 0.0005 
1329 1 0.0234999 0.0299163 0.0205102 0.0005 
1318 1 0.0212253 0.0323458 0.0205 0.0005 
1305 1 0.0200378 0.0316143 0.0207568 0.00075 
1258 1 0.0234916 0.0309162 0.0205 0.0005 
1695 1 0.0186755 0.03331 0.0215371 0.001 
1224 1 0.0182446 0.0316264 0.0209981 0.00075 
878 1 0.0232251 0.0333859 0.0221256 0.00075 
1213 1 0.0220183 0.0323434 0.0215566 0.00075 
1323 1 0.021982 0.0285917 0.0214459 0.0005 
1447 1 0.0188543 0.030842 0.0221684 0.00075 
1603 1 0.0179988 0.0302036 0.0212717 0.0005 
1403 1 0.0200427 0.0304859 0.0217791 0.0005 
1445 1 0.0234984 0.0316466 0.0211988 0.0005 
1544 1 0.0173299 0.0350015 0.0222803 0.00125 
986 1 0.0193014 0.0352148 0.0218667 0.00075 
1362 1 0.02325 0.0318945 0.0224033 0.00075 
1093 1 0.0175696 0.0316221 0.022338 0.00075 
1073 1 0.00507416 0.0361831 0.02075 0.00075 
249 1 0.00200499 0.0359524 0.0219998 0.002 
960 1 0.00693654 0.0364968 0.02086 0.00075 
535 1 0.000505091 0.0376641 0.0205 0.0005 
844 1 0.00392299 0.0367241 0.0205 0.0005 
60 1 0.00491714 0.0385822 0.0217498 0.00175 
451 1 0.000749958 0.0409622 0.0207498 0.00075 
366 1 0.00150538 0.0378914 0.0205 0.0005 
680 1 0.00262544 0.038388 0.02075 0.00075 
519 1 0.000511581 0.0423024 0.0205 0.0005 
733 1 0.00237141 0.0415077 0.0205 0.0005 
1108 1 0.000752354 0.0388672 0.02075 0.00075 
615 1 0.0053885 0.0404139 0.0205 0.0005 
1186 1 0.00287943 0.042414 0.0205 0.0005 
316 1 0.000500959 0.0379055 0.0215673 0.0005 
1276 1 0.00266914 0.0401208 0.0209999 0.001 
1177 1 0.00443581 0.0416956 0.0212499 0.00125 
1372 1 0.00762284 0.0387397 0.0220182 0.00075 
949 1 0.00692579 0.0396851 0.02075 0.00075 
1301 1 0.00644382 0.0419232 0.0207558 0.00075 
1191 1 0.00100663 0.0399924 0.0221835 0.001 
91 1 0.00731362 0.0379905 0.02075 0.00075 
1537 1 0.00245417 0.0417233 0.0217548 0.00075 
1497 1 0.000749983 0.042037 0.0217961 0.00075 
682 1 0.0076126 0.0423288 0.0205013 0.0005 
1674 1 0.00739438 0.0372573 0.0223274 0.00075 
626 1 0.00840057 0.0405651 0.0207502 0.00075 
1353 1 0.0101859 0.0368213 0.0216547 0.0005 
1419 1 0.0124509 0.0365534 0.02075 0.00075 
640 1 0.00959373 0.0361943 0.0207499 0.00075 
514 1 0.00957054 0.0417206 0.0205 0.0005 
641 1 0.0103136 0.0405141 0.0209999 0.001 
1019 1 0.0146718 0.0364987 0.0205042 0.0005 
669 1 0.0090412 0.038857 0.0209999 0.001 
835 1 0.00891651 0.0373315 0.0205 0.0005 
802 1 0.0126974 0.0415306 0.02075 0.00075 
1043 1 0.0141779 0.0405032 0.0209999 0.001 
1107 1 0.0110253 0.0370198 0.02075 0.00075 
901 1 0.0107345 0.0384917 0.02075 0.00075 
1149 1 0.0138785 0.0359003 0.0212726 0.00075 
1482 1 0.0119788 0.039892 0.0211632 0.00075 
1265 1 0.0121725 0.0388108 0.020507 0.0005 
1705 1 0.0129736 0.0379222 0.0205111 0.0005 
1716 1 0.0156444 0.0414321 0.0205 0.0005 
912 1 0.00889436 0.036326 0.0223486 0.001 
1346 1 0.0120737 0.0379943 0.0214483 0.00075 
1741 1 0.0110618 0.0405757 0.0222986 0.0005 
1484 1 0.0110929 0.04208 0.0220882 0.001 
1743 1 0.0159331 0.0393233 0.0214208 0.001 
621 1 0.00905396 0.0415946 0.0216354 0.00075 
1661 1 0.0122612 0.0411459 0.0218771 0.0005 
1487 1 0.0117101 0.0422566 0.0205 0.0005 
1644 1 0.00852424 0.0417833 0.0204998 0.0005 
1572 1 0.0108481 0.0389701 0.0224304 0.001 
328 1 0.0104674 0.0422508 0.0205 0.0005 
1131 1 0.0144901 0.0422052 0.0205 0.0005 
1622 1 0.0133976 0.0422626 0.0221895 0.001 
1181 1 0.0159129 0.0363258 0.02075 0.00075 
889 1 0.0234941 0.0356276 0.0212224 0.0005 
1145 1 0.0178156 0.0361938 0.0207499 0.00075 
1120 1 0.0200247 0.0359091 0.0207496 0.00075 
909 1 0.0234135 0.0363172 0.0205 0.0005 
268 1 0.0168789 0.0385847 0.0205029 0.0005 
1278 1 0.0192806 0.0393459 0.0205 0.0005 
1033 1 0.0191782 0.0390503 0.0224097 0.001 
1307 1 0.0202131 0.0371195 0.0205 0.0005 
1018 1 0.0184371 0.0399789 0.0205 0.0005 
973 1 0.0197799 0.040742 0.0205 0.0005 
1148 1 0.017574 0.0380756 0.0212342 0.0005 
990 1 0.0220227 0.0360434 0.0209999 0.001 
1003 1 0.0199396 0.0383135 0.02075 0.00075 
374 1 0.0232456 0.0386399 0.0207499 0.00075 
394 1 0.017877 0.0387285 0.0205 0.0005 
326 1 0.0235 0.0400023 0.0205 0.0005 
650 1 0.021349 0.0399361 0.0214999 0.0015 
848 1 0.0213056 0.0376722 0.0207528 0.00075 
993 1 0.0234931 0.0410051 0.0205 0.0005 
996 1 0.0175834 0.0373968 0.0205 0.0005 
892 1 0.0188924 0.0372388 0.02075 0.00075 
856 1 0.0165966 0.0375953 0.0205 0.0005 
1261 1 0.0234991 0.0373145 0.0205 0.0005 
1117 1 0.0206274 0.0415198 0.0205 0.0005 
1268 1 0.0225212 0.0375272 0.0205 0.0005 
1135 1 0.021653 0.0423421 0.02075 0.00075 
1422 1 0.017853 0.0413273 0.0209999 0.001 
1663 1 0.0187177 0.0362921 0.0216197 0.0005 
1062 1 0.0231741 0.0421888 0.02075 0.00075 
1559 1 0.0186287 0.0384148 0.0210821 0.0005 
1709 1 0.0164403 0.0420518 0.020505 0.0005 
1051 1 0.0195989 0.0373844 0.0220686 0.00075 
1165 1 0.0206763 0.036328 0.0220804 0.00075 
1506 1 0.0181287 0.0370846 0.0217774 0.0005 
1802 1 0.0162272 0.0373256 0.0214517 0.0005 
1431 1 0.0205031 0.0420195 0.0216584 0.00075 
1747 1 0.0180181 0.0380946 0.0221719 0.0005 
1882 1 0.0167052 0.0404969 0.0205 0.0005 
1549 1 0.0234983 0.036113 0.0221141 0.0005 
1023 1 0.0198013 0.0421611 0.0205 0.0005 
876 1 0.0227066 0.0376589 0.0224087 0.00125 
981 1 0.0233865 0.0404952 0.0222683 0.0005 
1746 1 0.0160578 0.0411216 0.0223193 0.001 
1546 1 0.0167087 0.0424442 0.0214022 0.0005 
247 1 0.00168348 0.0426896 0.02075 0.00075 
309 1 0.00557875 0.0427886 0.0205 0.0005 
554 1 0.000501188 0.0434861 0.0205 0.0005 
1215 1 0.00265651 0.0439399 0.0210116 0.0005 
570 1 0.00327734 0.0433387 0.0205 0.0005 
668 1 0.000547233 0.044505 0.0205 0.0005 
386 1 0.00152436 0.0440906 0.0205 0.0005 
433 1 0.00333155 0.044651 0.0205008 0.0005 
584 1 0.00521718 0.0450598 0.0207587 0.00075 
242 1 0.00622681 0.0457559 0.0205 0.0005 
814 1 0.00209341 0.0486027 0.02075 0.00075 
987 1 0.00401199 0.0458588 0.0205 0.0005 
762 1 0.00050068 0.0488305 0.0205036 0.0005 
1387 1 0.00544531 0.0472293 0.0209999 0.001 
236 1 0.00200679 0.0461518 0.0220002 0.002 
1432 1 0.00495833 0.0435532 0.0208618 0.0005 
1030 1 0.00483614 0.0495629 0.0205 0.0005 
1357 1 0.00670039 0.0439298 0.0205 0.0005 
1351 1 0.00403207 0.0449245 0.0211703 0.0005 
1378 1 0.00413498 0.0440636 0.0206113 0.0005 
1853 1 0.00147858 0.0492988 0.0215977 0.0005 
1909 1 0.00701651 0.0470467 0.0219879 0.0005 
608 1 0.000509831 0.0483312 0.0213795 0.0005 
1930 1 0.00789614 0.046689 0.0216077 0.0005 
1635 1 0.00306592 0.0430816 0.0222583 0.00075 
1571 1 0.0127563 0.0430294 0.02075 0.00075 
533 1 0.0085638 0.043116 0.0207663 0.00075 
1100 1 0.00967547 0.0465265 0.0207711 0.00075 
40 1 0.00953839 0.0494965 0.0205 0.0005 
883 1 0.0146721 0.0480689 0.0205 0.0005 
453 1 0.0121254 0.0485144 0.0219998 0.002 
1194 1 0.0131406 0.0450865 0.0205 0.0005 
1240 1 0.0146916 0.0453298 0.02075 0.00075 
1701 1 0.013883 0.0440588 0.0207599 0.00075 
1713 1 0.0114166 0.043174 0.0209908 0.0005 
1766 1 0.0149594 0.0489191 0.0213841 0.00075 
1777 1 0.00950558 0.0446801 0.0210647 0.00075 
1486 1 0.011253 0.044433 0.0207662 0.00075 
1807 1 0.0119391 0.0456905 0.0205 0.0005 
1481 1 0.0149928 0.043577 0.0224039 0.001 
985 1 0.015405 0.0463261 0.0205015 0.0005 
1864 1 0.0142306 0.0463761 0.021833 0.00075 
1188 1 0.0151856 0.0470724 0.0214274 0.0005 
1319 1 0.0154056 0.0473782 0.0205009 0.0005 
1889 1 0.0126278 0.0442751 0.0210838 0.0005 
1652 1 0.0155202 0.04606 0.0214616 0.0005 
1511 1 0.0128102 0.0451841 0.0215633 0.0005 
1688 1 0.0122578 0.0435504 0.021845 0.0005 
1297 1 0.0158921 0.0432054 0.0207591 0.00075 
969 1 0.0158009 0.0486499 0.0204999 0.0005 
1948 1 0.00923561 0.0483413 0.0218586 0.00075 
1133 1 0.0168859 0.0446688 0.02075 0.00075 
499 1 0.0180071 0.0490261 0.0212499 0.00125 
804 1 0.0234994 0.0433782 0.0205 0.0005 
970 1 0.0230622 0.0477126 0.02075 0.00075 
1097 1 0.0166244 0.0462092 0.0207496 0.00075 
1155 1 0.0187071 0.0469424 0.0205 0.0005 
1271 1 0.0225105 0.0432216 0.0205151 0.0005 
1289 1 0.0178456 0.0474502 0.0205 0.0005 
1334 1 0.0170778 0.0428494 0.0205014 0.0005 
917 1 0.0230399 0.0492125 0.02075 0.00075 
963 1 0.0196975 0.0468031 0.0205 0.0005 
1299 1 0.0180866 0.0457067 0.02075 0.00075 
1411 1 0.0175472 0.0470441 0.0216891 0.00075 
1426 1 0.0165853 0.0477095 0.02075 0.00075 
847 1 0.0231763 0.0464161 0.0214956 0.00075 
1494 1 0.0160836 0.0475428 0.0221583 0.00075 
1088 1 0.0192459 0.0471965 0.0220815 0.001 
927 1 0.0186537 0.0435017 0.0212499 0.00125 
1430 1 0.0164987 0.0437123 0.0217342 0.0005 
1548 1 0.0163717 0.0450833 0.0218112 0.0005 
1855 1 0.0219492 0.043969 0.0219943 0.00125 
1444 1 0.0172951 0.0458036 0.0217228 0.0005 
1490 1 0.0161823 0.0495782 0.0223363 0.00075 
1951 1 0.0215233 0.0468182 0.0207499 0.00075 
1390 1 0.00201836 0.0501174 0.0205 0.0005 
579 1 0.000766688 0.0502795 0.0207499 0.00075 
1242 1 0.00401033 0.0503708 0.0205 0.0005 
1596 1 0.000501153 0.0511895 0.0215647 0.0005 
423 1 0.0018262 0.0516503 0.0209999 0.001 
347 1 0.00521668 0.0512367 0.0207746 0.00075 
1251 1 0.00323074 0.0514611 0.0205 0.0005 
855 1 0.0041426 0.0518978 0.0205 0.0005 
495 1 0.00638061 0.0526114 0.0223657 0.00075 
712 1 0.00617838 0.0523923 0.02075 0.00075 
543 1 0.00127364 0.053817 0.0212499 0.00125 
402 1 0.00425323 0.0537711 0.0217499 0.00175 
3 1 0.00250936 0.0551448 0.0204999 0.0005 
740 1 0.000500006 0.054997 0.0222883 0.0005 
354 1 0.00345841 0.0554737 0.0205 0.0005 
424 1 0.00737249 0.0533431 0.02075 0.00075 
265 1 0.00686447 0.0548214 0.0207529 0.00075 
145 1 0.00150204 0.0565448 0.0215123 0.0015 
704 1 0.00322405 0.0564467 0.0204999 0.0005 
788 1 0.00578863 0.055864 0.0208273 0.00075 
1382 1 0.00460836 0.0556119 0.020502 0.0005 
674 1 0.00652309 0.0538335 0.0215552 0.0005 
1547 1 0.00744196 0.0531508 0.0219835 0.0005 
603 1 0.00424131 0.0562952 0.0214864 0.00075 
1174 1 0.000748913 0.0522124 0.0223219 0.00075 
1402 1 0.00728527 0.0562283 0.020518 0.0005 
1658 1 0.00686572 0.0549522 0.022277 0.00075 
1824 1 0.00797086 0.0553465 0.0205001 0.0005 
1306 1 0.0114763 0.0514368 0.02075 0.00075 
1565 1 0.0141305 0.0505083 0.021001 0.001 
335 1 0.0110831 0.052603 0.0205 0.0005 
405 1 0.0131965 0.0516535 0.020501 0.0005 
367 1 0.0091731 0.0517321 0.0217499 0.00175 
1201 1 0.0123568 0.0527709 0.0207502 0.00075 
371 1 0.0120049 0.0544697 0.0205 0.0005 
496 1 0.00869689 0.0540475 0.02075 0.00075 
1151 1 0.0139305 0.0523326 0.0205 0.0005 
792 1 0.0136618 0.0551529 0.0212498 0.00125 
1089 1 0.0116864 0.0554839 0.0205 0.0005 
278 1 0.00896821 0.0554282 0.0205 0.0005 