ITEM: TIMESTEP
580000
ITEM: NUMBER OF ATOMS
2237
ITEM: BOX BOUNDS mm mm mm
-2.4e-06 0.0240024
-7.8e-06 0.0780078
-3e-06 0.030003
ITEM: ATOMS id type x y z radius 
1 1 0.00329602 0.00233846 0.0214999 0.0015 
2 1 0.000499977 0.00197674 0.0205 0.0005 
3 1 0.00549653 0.00463387 0.02075 0.00075 
4 1 0.00477992 0.000500906 0.0205 0.0005 
5 1 0.00448694 0.00382996 0.0205 0.0005 
6 1 0.00277532 0.000500108 0.0205 0.0005 
7 1 0.00428911 0.00492364 0.0205 0.0005 
8 1 0.000499987 0.000500404 0.0205 0.0005 
9 1 0.00100208 0.00329876 0.021 0.001 
10 1 0.00705577 0.00604386 0.0205001 0.0005 
11 1 0.00378187 0.000674614 0.0205 0.0005 
12 1 0.000500351 0.00566924 0.0205 0.0005 
13 1 0.00546202 0.00342194 0.0216807 0.0005 
14 1 0.00481805 0.00151056 0.0205 0.0005 
15 1 0.0017606 0.00674837 0.0205001 0.0005 
16 1 0.00596471 0.00149712 0.0205 0.0005 
17 1 0.00049964 0.00462037 0.0204998 0.0005 
18 1 0.00540262 0.00258967 0.02075 0.00075 
19 1 0.00579968 0.000500265 0.0215551 0.0005 
20 1 0.00578066 0.000507328 0.0205027 0.0005 
21 1 0.000747676 0.000499983 0.0214688 0.0005 
22 1 0.00691819 0.00229919 0.0207499 0.00075 
23 1 0.00154869 0.00113565 0.0207499 0.00075 
24 1 0.00697115 0.000798819 0.02075 0.00075 
25 1 0.00319539 0.00406763 0.0205 0.0005 
27 1 0.00288356 0.00512342 0.0205 0.0005 
28 1 0.00219513 0.00406091 0.0205 0.0005 
29 1 0.00183857 0.000749988 0.0221702 0.00075 
31 1 0.000500101 0.00146249 0.0213576 0.0005 
32 1 0.000509546 0.00629424 0.0212808 0.0005 
33 1 0.00160734 0.00514164 0.0207504 0.00075 
34 1 0.0061237 0.00358103 0.0205 0.0005 
36 1 0.00495254 0.000992127 0.0213536 0.0005 
37 1 0.00237318 0.00413917 0.0214811 0.0005 
38 1 0.00408489 0.000500535 0.0214369 0.0005 
40 1 0.000499989 0.000515313 0.0224375 0.0005 
41 1 0.00732141 0.00345702 0.0205 0.0005 
42 1 0.00795342 0.00153094 0.0205 0.0005 
43 1 0.00694122 0.00438903 0.0205092 0.0005 
1724 1 0.00588391 0.0064003 0.0207507 0.00075 
1770 1 0.00245351 0.00602664 0.0204999 0.0005 
44 1 0.00790733 0.0066104 0.0205 0.0005 
1633 1 0.00797243 0.00392632 0.0211008 0.0005 
1665 1 0.0013169 0.00592395 0.0217545 0.0005 
1806 1 0.00800642 0.00527151 0.0207504 0.00075 
1715 1 0.00462489 0.000705203 0.0222535 0.0005 
1926 1 0.00353097 0.00473755 0.0215005 0.00075 
1662 1 0.00682196 0.00468607 0.0219828 0.001 
1735 1 0.00544377 0.00178784 0.021708 0.0005 
1762 1 0.00662954 0.0017003 0.0220945 0.00075 
1812 1 0.0010343 0.00470184 0.0220666 0.00075 
99 1 0.00867557 0.00578886 0.0223953 0.0005 
45 1 0.00884302 0.00625011 0.0205 0.0005 
46 1 0.00923001 0.00532531 0.0205 0.0005 
47 1 0.0111738 0.00437555 0.0205 0.0005 
48 1 0.00961128 0.00266879 0.0205 0.0005 
49 1 0.0137673 0.00255521 0.0207499 0.00075 
50 1 0.00996987 0.00152837 0.0205013 0.0005 
51 1 0.010154 0.00050017 0.0205 0.0005 
52 1 0.0123979 0.000580307 0.0205 0.0005 
53 1 0.01115 0.00103907 0.0205 0.0005 
54 1 0.00816081 0.00050002 0.0205 0.0005 
55 1 0.0104889 0.00544704 0.0205 0.0005 
56 1 0.0127039 0.00413396 0.0205 0.0005 
57 1 0.00836992 0.00268475 0.02075 0.00075 
58 1 0.0106927 0.00678692 0.0205 0.0005 
59 1 0.00984251 0.0062102 0.0205 0.0005 
60 1 0.0121849 0.00580041 0.0214999 0.0015 
61 1 0.0104751 0.00108691 0.0215608 0.00075 
62 1 0.00897218 0.00159673 0.0205 0.0005 
63 1 0.00878204 0.00391298 0.0205 0.0005 
64 1 0.0138912 0.00549516 0.0205005 0.0005 
66 1 0.0149561 0.00416056 0.0212499 0.00125 
67 1 0.00915642 0.000604768 0.0205021 0.0005 
68 1 0.0115857 0.00272154 0.0212499 0.00125 
69 1 0.013612 0.00075364 0.02075 0.00075 
70 1 0.00996465 0.00437408 0.0208709 0.00075 
71 1 0.0116588 0.000499994 0.0211712 0.0005 
72 1 0.0128575 0.0017351 0.0205 0.0005 
75 1 0.0156076 0.00150002 0.0214999 0.0015 
65 1 0.0136458 0.00675655 0.0205 0.0005 
2063 1 0.0126133 0.000730428 0.021784 0.0005 
183 1 0.0158457 0.00694226 0.0205 0.0005 
2015 1 0.00944162 0.00565913 0.021599 0.0005 
1623 1 0.0158729 0.00536754 0.0221252 0.0005 
143 1 0.0146961 0.00657851 0.0206635 0.0005 
1828 1 0.0134727 0.00245477 0.0224719 0.001 
1644 1 0.0102066 0.00632406 0.0224359 0.00075 
1608 1 0.0161113 0.00572752 0.02075 0.00075 
74 1 0.0165608 0.00427263 0.0205 0.0005 
76 1 0.0229124 0.000751373 0.0207589 0.00075 
77 1 0.0234996 0.00524509 0.0205003 0.0005 
78 1 0.0206489 0.00100039 0.021001 0.001 
79 1 0.0232495 0.0030261 0.0207515 0.00075 
81 1 0.0207148 0.00295202 0.0207506 0.00075 
82 1 0.0203514 0.00489614 0.0205 0.0005 
83 1 0.0189091 0.00170731 0.02075 0.00075 
84 1 0.0215727 0.0020741 0.0205016 0.0005 
85 1 0.0174108 0.000609941 0.0205 0.0005 
86 1 0.0234991 0.00182699 0.0205002 0.0005 
87 1 0.0210187 0.00413821 0.0205 0.0005 
88 1 0.0185911 0.000508592 0.0205 0.0005 
89 1 0.0223816 0.00197282 0.0214529 0.00075 
90 1 0.0212743 0.00616917 0.02075 0.00075 
91 1 0.0200156 0.00602737 0.0205 0.0005 
92 1 0.0224896 0.00409013 0.0205416 0.0005 
93 1 0.0218951 0.00328301 0.0205 0.0005 
94 1 0.0190591 0.00669254 0.0205 0.0005 
95 1 0.0234991 0.00424997 0.020626 0.0005 
97 1 0.0173433 0.00566605 0.0205 0.0005 
182 1 0.0232368 0.00644498 0.02075 0.00075 
1643 1 0.0208928 0.00513304 0.0214414 0.0005 
1663 1 0.0217431 0.00482741 0.0204999 0.0005 
1901 1 0.0201502 0.00625117 0.0214846 0.0005 
1650 1 0.0224249 0.00526906 0.0217607 0.001 
2044 1 0.0163236 0.00318318 0.0205 0.0005 
1612 1 0.0227751 0.00340507 0.0223961 0.001 
96 1 0.0210942 0.00702753 0.0216454 0.0005 
187 1 0.022159 0.0070292 0.0205002 0.0005 
2221 1 0.0223657 0.000933321 0.0221592 0.0005 
35 1 0.000510317 0.00735822 0.0220403 0.0005 
1682 1 0.0030509 0.00731189 0.0222563 0.00175 
26 1 0.000749335 0.00743735 0.0207545 0.00075 
100 1 0.00610234 0.0081224 0.0209999 0.001 
101 1 0.00183144 0.00800685 0.0204991 0.0005 
102 1 0.00444628 0.00754975 0.0205015 0.0005 
103 1 0.00183821 0.0103073 0.0204999 0.0005 
104 1 0.00225355 0.00915553 0.0207509 0.00075 
105 1 0.006828 0.0112803 0.0205 0.0005 
106 1 0.00342708 0.00870303 0.0205 0.0005 
107 1 0.00321073 0.0119257 0.0205 0.0005 
108 1 0.00442231 0.0111513 0.02075 0.00075 
109 1 0.000500064 0.0106168 0.0205 0.0005 
110 1 0.00539479 0.0095958 0.0205005 0.0005 
111 1 0.0014266 0.0112186 0.0205 0.0005 
112 1 0.00438899 0.0126573 0.02075 0.00075 
113 1 0.00543724 0.0103853 0.0215457 0.00075 
114 1 0.00510514 0.0119193 0.0214617 0.0005 
116 1 0.00250045 0.0129385 0.0205 0.0005 
118 1 0.000499985 0.0131356 0.0205 0.0005 
119 1 0.00338436 0.0134062 0.0205 0.0005 
122 1 0.00636362 0.0121509 0.0206681 0.0005 
124 1 0.00589542 0.0108982 0.0205 0.0005 
125 1 0.00538613 0.0119099 0.0205 0.0005 
126 1 0.00398433 0.0138763 0.0212284 0.0005 
128 1 0.0069265 0.0129661 0.0205 0.0005 
129 1 0.00568119 0.0128654 0.0205 0.0005 
130 1 0.00143747 0.0124063 0.0208895 0.00075 
131 1 0.000505708 0.0116292 0.0205 0.0005 
132 1 0.00638237 0.0097528 0.0205 0.0005 
133 1 0.00420959 0.00990818 0.0205 0.0005 
134 1 0.000750008 0.00940718 0.02075 0.00075 
136 1 0.00152433 0.00940528 0.0217349 0.0005 
137 1 0.00280202 0.0134709 0.0213202 0.0005 
138 1 0.000500124 0.00842778 0.0214854 0.0005 
139 1 0.00736403 0.00745933 0.0205 0.0005 
140 1 0.000526039 0.0137203 0.0214357 0.0005 
141 1 0.00772245 0.0087371 0.02075 0.00075 
148 1 0.0079937 0.0135606 0.0208209 0.00075 
1822 1 0.00308603 0.010416 0.0207529 0.00075 
154 1 0.00749992 0.0102519 0.0207534 0.00075 
1865 1 0.000583536 0.0111476 0.0214035 0.0005 
1780 1 0.00460441 0.00900301 0.0212667 0.00075 
222 1 0.00660716 0.013918 0.0205 0.0005 
1934 1 0.003622 0.0128927 0.0217112 0.0005 
120 1 0.00513595 0.013963 0.0207499 0.00075 
1893 1 0.00368734 0.010952 0.0220465 0.00075 
123 1 0.000545381 0.0141345 0.0205 0.0005 
1655 1 0.00631937 0.00938751 0.0222433 0.00075 
1805 1 0.00272846 0.012108 0.022122 0.00075 
1890 1 0.000929001 0.0101321 0.0220787 0.0005 
142 1 0.0144692 0.00885456 0.0205 0.0005 
144 1 0.00964468 0.0104517 0.0204999 0.0005 
145 1 0.0135474 0.00846251 0.0205 0.0005 
147 1 0.0130774 0.00757982 0.0205 0.0005 
149 1 0.00942723 0.00773587 0.0212508 0.00125 
150 1 0.0118974 0.00790817 0.02075 0.00075 
151 1 0.0123171 0.00934827 0.02075 0.00075 
152 1 0.0106775 0.00870413 0.0205001 0.0005 
153 1 0.0115983 0.0107514 0.02075 0.00075 
155 1 0.0121436 0.0122088 0.0207506 0.00075 
156 1 0.00950398 0.0115679 0.0205113 0.0005 
158 1 0.00866224 0.0106368 0.0205001 0.0005 
159 1 0.0137723 0.00957203 0.0205 0.0005 
160 1 0.0105537 0.011767 0.0205 0.0005 
163 1 0.00799156 0.0116691 0.0207516 0.00075 
164 1 0.00987864 0.0135612 0.0205 0.0005 
165 1 0.00949445 0.0126379 0.0205 0.0005 
166 1 0.0112051 0.0133785 0.0207499 0.00075 
167 1 0.00959851 0.00931168 0.0205 0.0005 
168 1 0.0126969 0.0136091 0.0207507 0.00075 
169 1 0.0129543 0.0112915 0.0204998 0.0005 
170 1 0.0143625 0.0111694 0.0210008 0.001 
171 1 0.00874332 0.00966001 0.0213472 0.00075 
172 1 0.0125304 0.0112334 0.0218331 0.00075 
173 1 0.013526 0.0123122 0.0205001 0.0005 
174 1 0.0138749 0.0131936 0.0208187 0.0005 
175 1 0.0093174 0.0110202 0.0213315 0.0005 
176 1 0.00878363 0.0125497 0.0211978 0.0005 
177 1 0.00859445 0.0116117 0.0218453 0.0005 
179 1 0.0130882 0.0103009 0.0205 0.0005 
180 1 0.0131843 0.0126438 0.0217899 0.00075 
184 1 0.0151289 0.00994935 0.0214303 0.0005 
1640 1 0.0112332 0.007917 0.0220948 0.00075 
1732 1 0.0104665 0.00975659 0.0216398 0.001 
181 1 0.0147884 0.00980241 0.0205 0.0005 
191 1 0.0155256 0.00823185 0.02075 0.00075 
1614 1 0.0110907 0.0123367 0.022152 0.001 
192 1 0.0157747 0.0109654 0.0205 0.0005 
1815 1 0.0155159 0.0107944 0.0218841 0.0005 
1775 1 0.0125282 0.0139922 0.0219318 0.0005 
1740 1 0.015956 0.0115506 0.0213651 0.0005 
325 1 0.0140488 0.0141256 0.0205005 0.0005 
1888 1 0.00901277 0.0106077 0.0224784 0.00075 
178 1 0.0167107 0.0129729 0.0205 0.0005 
80 1 0.0201642 0.00726605 0.0207488 0.00075 
185 1 0.0235 0.00868812 0.0204999 0.0005 
186 1 0.0175154 0.00749572 0.0214999 0.0015 
188 1 0.0232322 0.00781727 0.0213555 0.00075 
189 1 0.0235001 0.00968798 0.0204999 0.0005 
190 1 0.0215488 0.00830621 0.0209999 0.001 
193 1 0.0178621 0.0134319 0.02075 0.00075 
194 1 0.0201157 0.00851744 0.0205 0.0005 
196 1 0.020321 0.00999954 0.0213951 0.0005 
197 1 0.0188946 0.00952348 0.0209999 0.001 
198 1 0.0163401 0.0118731 0.0205 0.0005 
199 1 0.0174115 0.00924275 0.0205 0.0005 
200 1 0.0229995 0.0110104 0.0210001 0.001 
201 1 0.0161888 0.00973549 0.02075 0.00075 
202 1 0.0207922 0.00951868 0.0205 0.0005 
203 1 0.0171736 0.0108805 0.02075 0.00075 
204 1 0.0173107 0.0121137 0.0205 0.0005 
205 1 0.0200332 0.0132956 0.0205 0.0005 
206 1 0.0209473 0.0112257 0.0207499 0.00075 
207 1 0.0234991 0.012348 0.0205 0.0005 
208 1 0.0235 0.00926076 0.021404 0.0005 
209 1 0.0202558 0.00900216 0.0213633 0.0005 
210 1 0.0222945 0.0125923 0.0207499 0.00075 
211 1 0.0200591 0.0103603 0.0205 0.0005 
212 1 0.0221222 0.0140821 0.020766 0.00075 
213 1 0.0205445 0.0123823 0.0205 0.0005 
214 1 0.0235 0.0133905 0.0205 0.0005 
215 1 0.0211638 0.0131683 0.0205 0.0005 
216 1 0.0216017 0.010019 0.0213544 0.00075 
217 1 0.0173217 0.0121197 0.0215228 0.0005 
218 1 0.021221 0.0123041 0.0217572 0.00075 
219 1 0.0231487 0.0133646 0.0214358 0.0005 
221 1 0.0235 0.0124103 0.021498 0.0005 
324 1 0.0191212 0.0137087 0.0205 0.0005 
1626 1 0.0190363 0.0118716 0.0212499 0.00125 
1916 1 0.0163579 0.00909675 0.021811 0.0005 
1691 1 0.0228049 0.00982617 0.0222755 0.00075 
1684 1 0.0219278 0.01125 0.0220217 0.0005 
1915 1 0.0234998 0.00868162 0.0222202 0.0005 
1979 1 0.0220424 0.00718245 0.0219244 0.0005 
220 1 0.0206755 0.0139579 0.0208985 0.0005 
2005 1 0.020712 0.0106567 0.022384 0.00075 
1851 1 0.0198455 0.00743846 0.0224594 0.001 
117 1 0.00346222 0.0144036 0.0205 0.0005 
121 1 0.00187793 0.0146082 0.0209999 0.001 
223 1 0.00462483 0.0153287 0.0205 0.0005 
224 1 0.00299994 0.0154908 0.0205 0.0005 
225 1 0.00250637 0.0164288 0.0205 0.0005 
226 1 0.00633572 0.0154839 0.0212497 0.00125 
227 1 0.00149575 0.0159747 0.0205 0.0005 
228 1 0.0005 0.0151335 0.0205 0.0005 
229 1 0.000500489 0.0161445 0.0205 0.0005 
230 1 0.00469131 0.0174943 0.0205 0.0005 
231 1 0.00290299 0.0173922 0.0205 0.0005 
232 1 0.00125215 0.0175401 0.0212499 0.00125 
233 1 0.00633147 0.0175079 0.0205 0.0005 
234 1 0.00538592 0.0185043 0.0207499 0.00075 
235 1 0.000500743 0.0195928 0.0205002 0.0005 
236 1 0.0038446 0.016605 0.02075 0.00075 
237 1 0.00548024 0.0172915 0.02108 0.0005 
238 1 0.00489481 0.0164689 0.0214627 0.0005 
239 1 0.00515605 0.0165384 0.0205 0.0005 
240 1 0.00262187 0.0183687 0.0205 0.0005 
241 1 0.000784714 0.0156165 0.021328 0.0005 
242 1 0.000501366 0.0200942 0.0213816 0.0005 
243 1 0.00350208 0.0188515 0.0204997 0.0005 
244 1 0.00445907 0.0193357 0.0205 0.0005 
245 1 0.00610119 0.0171286 0.0218467 0.0005 
246 1 0.00331745 0.019844 0.020501 0.0005 
247 1 0.0019085 0.0197267 0.0210031 0.001 
248 1 0.00486576 0.0193476 0.0215118 0.0005 
249 1 0.00699858 0.0203468 0.0205 0.0005 
250 1 0.00377164 0.0178884 0.0205004 0.0005 
256 1 0.00730062 0.0187936 0.0212499 0.00125 
255 1 0.00731108 0.0170333 0.0221997 0.00075 
392 1 0.00562365 0.0199861 0.0207499 0.00075 
443 1 0.00426372 0.0206203 0.0207568 0.00075 
1846 1 0.00362139 0.0193824 0.0216245 0.00075 
393 1 0.00300848 0.0208011 0.0205002 0.0005 
1615 1 0.00485125 0.0178193 0.0216533 0.0005 
259 1 0.00766955 0.0168902 0.0207501 0.00075 
395 1 0.00052219 0.0205926 0.0205002 0.0005 
1616 1 0.00343145 0.0154164 0.021966 0.001 
1697 1 0.00791623 0.0159175 0.0224045 0.0005 
1802 1 0.00448366 0.0204423 0.0219744 0.0005 
411 1 0.000508444 0.0211978 0.0213123 0.0005 
390 1 0.00654387 0.020855 0.0215549 0.00075 
444 1 0.00324501 0.0210299 0.0214461 0.0005 
1636 1 0.00224396 0.0211452 0.0221921 0.00075 
432 1 0.00530721 0.0210793 0.0212695 0.0005 
261 1 0.00795198 0.015697 0.0204998 0.0005 
1804 1 0.00322318 0.0179341 0.0216343 0.00075 
2055 1 0.00468989 0.0185204 0.0223514 0.0005 
161 1 0.00908935 0.0142001 0.0205 0.0005 
1855 1 0.0110652 0.0145638 0.021121 0.0005 
162 1 0.0102431 0.0145042 0.0205 0.0005 
146 1 0.00824784 0.0147416 0.0205 0.0005 
252 1 0.011846 0.0144898 0.0205 0.0005 
254 1 0.0127965 0.0148334 0.0205 0.0005 
257 1 0.0121774 0.015136 0.021543 0.00075 
258 1 0.0112069 0.0153347 0.0205002 0.0005 
260 1 0.0133911 0.0148896 0.0213746 0.0005 
262 1 0.0138267 0.0151012 0.0204999 0.0005 
263 1 0.0126513 0.0158433 0.0205 0.0005 
264 1 0.0101541 0.0183883 0.0205 0.0005 
265 1 0.0091624 0.0195341 0.0204997 0.0005 
267 1 0.0140133 0.0166736 0.0212485 0.00125 
268 1 0.0111528 0.0182929 0.0205 0.0005 
269 1 0.0101194 0.0154978 0.0205 0.0005 
270 1 0.0118562 0.0194861 0.0208331 0.00075 
271 1 0.0124528 0.0169382 0.0205 0.0005 
272 1 0.0148169 0.0194667 0.0205 0.0005 
273 1 0.0103311 0.0164756 0.0205 0.0005 
274 1 0.0106666 0.0192468 0.0205 0.0005 
275 1 0.0099005 0.0202086 0.0205 0.0005 
276 1 0.0131522 0.0201641 0.0214643 0.0005 
277 1 0.0109003 0.0202193 0.0205 0.0005 
278 1 0.0119406 0.0210298 0.02075 0.00075 
280 1 0.0115092 0.0173055 0.0205 0.0005 
281 1 0.0123514 0.0180804 0.0210024 0.00075 
282 1 0.01294 0.0203219 0.0205 0.0005 
283 1 0.0134552 0.0183857 0.0205013 0.0005 
284 1 0.0130504 0.0193263 0.0205 0.0005 
285 1 0.0139004 0.0200267 0.0205 0.0005 
286 1 0.0137384 0.0193229 0.0212256 0.0005 
287 1 0.0127369 0.0191495 0.0220648 0.00075 
288 1 0.0121151 0.0163452 0.0212324 0.0005 
289 1 0.0149943 0.0204632 0.0205 0.0005 
290 1 0.0144086 0.0183468 0.0208012 0.0005 
291 1 0.00916318 0.0185345 0.0205 0.0005 
292 1 0.010521 0.0174576 0.0205 0.0005 
293 1 0.0148121 0.0210905 0.0212571 0.0005 
294 1 0.0133737 0.0210435 0.0210397 0.0005 
295 1 0.00854185 0.0177503 0.0205 0.0005 
296 1 0.0153622 0.0183642 0.0205 0.0005 
297 1 0.00910592 0.016458 0.0207501 0.00075 
298 1 0.0110399 0.0186539 0.021459 0.0005 
300 1 0.0113174 0.0176179 0.0215521 0.0005 
301 1 0.0114353 0.0163083 0.0205 0.0005 
302 1 0.00818961 0.0159291 0.0214428 0.0005 
303 1 0.0119998 0.020305 0.0217667 0.0005 
304 1 0.0107406 0.0168286 0.0213414 0.0005 
305 1 0.0135259 0.0183557 0.0215065 0.0005 
306 1 0.0151208 0.0154672 0.0205 0.0005 
307 1 0.0101218 0.0159502 0.0213918 0.0005 
308 1 0.0123012 0.0171014 0.0218596 0.0005 
309 1 0.0127787 0.0208033 0.0221478 0.0005 
310 1 0.0125772 0.016169 0.0221238 0.0005 
311 1 0.00953227 0.0176056 0.0204998 0.0005 
312 1 0.0102646 0.0179567 0.0213954 0.0005 
314 1 0.0114638 0.016537 0.0219675 0.0005 
315 1 0.010399 0.0199514 0.021937 0.001 
316 1 0.0154566 0.0173678 0.0205 0.0005 
317 1 0.0158096 0.0198841 0.0205 0.0005 
319 1 0.0111144 0.0157923 0.0213932 0.0005 
320 1 0.015572 0.0163662 0.0205 0.0005 
321 1 0.00916417 0.0190323 0.0214048 0.0005 
322 1 0.0141275 0.0203775 0.0214085 0.0005 
323 1 0.00857821 0.0173104 0.0214986 0.0005 
331 1 0.0158565 0.0170526 0.0213607 0.0005 
1603 1 0.0091484 0.0152328 0.0205 0.0005 
1637 1 0.0092525 0.0180366 0.0213646 0.0005 
1721 1 0.0154997 0.0166004 0.022179 0.0005 
461 1 0.00851789 0.0209772 0.02125 0.00125 
318 1 0.0115223 0.019043 0.0223408 0.0005 
313 1 0.011187 0.0212128 0.0217306 0.0005 
1729 1 0.0216277 0.0160957 0.0218715 0.0005 
326 1 0.0201649 0.0147198 0.0205 0.0005 
327 1 0.0234332 0.014443 0.0205 0.0005 
328 1 0.0187404 0.0145628 0.0208544 0.0005 
329 1 0.0178976 0.0150782 0.0215657 0.0005 
330 1 0.0172806 0.0145923 0.0207992 0.0005 
332 1 0.0234997 0.0143313 0.0214915 0.0005 
333 1 0.0180427 0.0151854 0.0205 0.0005 
334 1 0.0214513 0.0151014 0.0210369 0.0005 
336 1 0.0225392 0.01523 0.0204999 0.0005 
337 1 0.016962 0.0161051 0.0209999 0.001 
338 1 0.0184479 0.0158683 0.0211105 0.0005 
339 1 0.0191043 0.0154246 0.0205 0.0005 
340 1 0.018349 0.0172301 0.0214243 0.0005 
341 1 0.0181073 0.0169347 0.0205 0.0005 
342 1 0.0173412 0.0188935 0.0204999 0.0005 
343 1 0.0221881 0.0164033 0.02075 0.00075 
344 1 0.0178594 0.0179035 0.0205 0.0005 
345 1 0.0193148 0.0167269 0.02075 0.00075 
346 1 0.0235 0.0175199 0.0205 0.0005 
347 1 0.0223366 0.0179006 0.0207553 0.00075 
348 1 0.0210889 0.0158633 0.0205 0.0005 
349 1 0.020251 0.0175424 0.0205002 0.0005 
350 1 0.0183386 0.0187815 0.0205 0.0005 
351 1 0.0189829 0.0179062 0.0205 0.0005 
352 1 0.0234953 0.0186258 0.0205 0.0005 
353 1 0.0198094 0.0180556 0.0215516 0.00075 
354 1 0.0166374 0.0178145 0.02075 0.00075 
355 1 0.0209819 0.0185445 0.0207498 0.00075 
356 1 0.0212479 0.0173342 0.0205 0.0005 
357 1 0.0197982 0.0188601 0.0205 0.0005 
358 1 0.0235 0.0155082 0.0205 0.0005 
359 1 0.0200511 0.0157469 0.0205 0.0005 
360 1 0.0186411 0.0188823 0.0214483 0.0005 
361 1 0.0203351 0.0199647 0.02075 0.00075 
362 1 0.0188361 0.0199094 0.02075 0.00075 
363 1 0.0235 0.0165082 0.0205 0.0005 
364 1 0.0224954 0.0200406 0.0214999 0.0015 
366 1 0.0205646 0.0166502 0.0208258 0.0005 
367 1 0.02325 0.0170142 0.0216155 0.00075 
368 1 0.0176774 0.0193063 0.02148 0.0005 
369 1 0.0235 0.0182303 0.0214184 0.0005 
370 1 0.0195582 0.0192797 0.0215876 0.0005 
371 1 0.0177257 0.0183103 0.0214036 0.0005 
373 1 0.0183762 0.0207257 0.0219462 0.0005 
374 1 0.0176112 0.0199207 0.0205 0.0005 
376 1 0.0161722 0.0189507 0.0205 0.0005 
377 1 0.0229239 0.0154427 0.0216701 0.00075 
378 1 0.0206643 0.0208964 0.0215154 0.0005 
379 1 0.0167951 0.0195855 0.0209719 0.0005 
380 1 0.0214802 0.0170884 0.0215193 0.0005 
381 1 0.0205807 0.0190114 0.0218375 0.0005 
382 1 0.0234975 0.018539 0.0223696 0.0005 
383 1 0.0201731 0.016073 0.0215538 0.0005 
385 1 0.0173245 0.017459 0.0217528 0.0005 
386 1 0.0198401 0.0151547 0.0213398 0.0005 
388 1 0.020522 0.0170048 0.0217935 0.0005 
1830 1 0.021448 0.0181616 0.0221595 0.00075 
391 1 0.00698353 0.0213955 0.0205 0.0005 
394 1 0.00494968 0.0216341 0.0205001 0.0005 
396 1 0.00197446 0.0214578 0.02075 0.00075 
397 1 0.00536049 0.0253485 0.0205 0.0005 
398 1 0.00599514 0.0240274 0.02075 0.00075 
399 1 0.00453311 0.0230974 0.0209998 0.001 
400 1 0.000750118 0.0223246 0.0207506 0.00075 
401 1 0.00122609 0.0255538 0.0213767 0.0005 
402 1 0.00083757 0.0251968 0.0205 0.0005 
403 1 0.000499997 0.0261381 0.0205 0.0005 
404 1 0.00752339 0.0223757 0.0205025 0.0005 
405 1 0.00252333 0.0252853 0.0205 0.0005 
406 1 0.0056459 0.0263336 0.0204999 0.0005 
407 1 0.00348891 0.0244805 0.02075 0.00075 
408 1 0.000500232 0.0235234 0.0205 0.0005 
409 1 0.00657159 0.0255321 0.02075 0.00075 
410 1 0.00395079 0.0218046 0.0205002 0.0005 
412 1 0.00181039 0.0240539 0.0210039 0.001 
413 1 0.00604523 0.0221825 0.0207512 0.00075 
415 1 0.00666866 0.0267552 0.0205 0.0005 
416 1 0.0025395 0.0266208 0.02075 0.00075 
417 1 0.00769522 0.0267095 0.0205 0.0005 
418 1 0.00475839 0.026794 0.0205 0.0005 
419 1 0.000499994 0.0247251 0.0213145 0.0005 
420 1 0.00722531 0.0275922 0.0205 0.0005 
421 1 0.00475889 0.0245497 0.0205 0.0005 
422 1 0.000556103 0.0239726 0.0220133 0.0005 
423 1 0.000511145 0.0263556 0.021476 0.0005 
424 1 0.00165231 0.0257766 0.0205 0.0005 
426 1 0.00285414 0.0226726 0.0207499 0.00075 
427 1 0.00723103 0.0264318 0.0217541 0.00075 
428 1 0.00131516 0.0267408 0.0205 0.0005 
429 1 0.00437082 0.0254923 0.0205 0.0005 
430 1 0.00340604 0.0257554 0.0205 0.0005 
431 1 0.00592574 0.0265051 0.0214446 0.0005 
433 1 0.00153187 0.0277264 0.0205 0.0005 
434 1 0.00402354 0.0273159 0.021239 0.0005 
435 1 0.00376199 0.0266951 0.0205 0.0005 
436 1 0.00591928 0.0229495 0.0220576 0.00075 
437 1 0.000973104 0.0278125 0.0213248 0.0005 
438 1 0.000501114 0.0273251 0.0205 0.0005 
439 1 0.00187263 0.0271968 0.0219639 0.00075 
440 1 0.00487696 0.0268471 0.0214915 0.0005 
442 1 0.0067598 0.0275521 0.0214619 0.0005 
445 1 0.00573247 0.0275667 0.02075 0.00075 
446 1 0.00684688 0.0231044 0.0210166 0.0005 
447 1 0.000499991 0.0278041 0.0222057 0.0005 
448 1 0.00775138 0.0247239 0.0205 0.0005 
450 1 0.00354431 0.0279651 0.0205 0.0005 
453 1 0.00729538 0.0238339 0.0205 0.0005 
454 1 0.00452423 0.0277666 0.0205 0.0005 
455 1 0.00772791 0.0278017 0.0213756 0.0005 
456 1 0.00364145 0.0219483 0.0214426 0.0005 
594 1 0.00255168 0.0278452 0.0204999 0.0005 
629 1 0.00373039 0.0273092 0.022195 0.0005 
1594 1 0.00741833 0.0245026 0.0222468 0.00125 
522 1 0.00743507 0.0224146 0.0215028 0.0005 
463 1 0.00783965 0.02572 0.0205004 0.0005 
1824 1 0.00483514 0.021847 0.0218398 0.0005 
615 1 0.00354672 0.0281639 0.0214806 0.0005 
1857 1 0.000970207 0.0218881 0.0219187 0.0005 
279 1 0.0141842 0.0212709 0.0205 0.0005 
579 1 0.00803395 0.0281805 0.0205 0.0005 
457 1 0.0152709 0.0219018 0.0216197 0.0005 
458 1 0.0102004 0.0214377 0.0219783 0.0005 
459 1 0.0134338 0.0219401 0.0205 0.0005 
460 1 0.0138462 0.0226469 0.0217666 0.0005 
462 1 0.00976113 0.0222486 0.0215916 0.0005 
464 1 0.00864017 0.0270368 0.0205 0.0005 
465 1 0.0104205 0.0213461 0.02075 0.00075 
466 1 0.00876324 0.0231995 0.0209998 0.001 
467 1 0.00904415 0.0250871 0.02075 0.00075 
468 1 0.0101713 0.0239768 0.0216889 0.00075 
469 1 0.00959393 0.0267198 0.0205 0.0005 
470 1 0.00982003 0.0241394 0.0205 0.0005 
471 1 0.0132486 0.0244625 0.0205 0.0005 
473 1 0.0130104 0.0254375 0.0204999 0.0005 
474 1 0.0143947 0.0245664 0.0205 0.0005 
475 1 0.0117439 0.0233745 0.0205 0.0005 
476 1 0.0124831 0.0222509 0.0205 0.0005 
477 1 0.0110191 0.0258471 0.0210073 0.0005 
478 1 0.010963 0.0240632 0.0205 0.0005 
479 1 0.0128043 0.0219593 0.0216723 0.00075 
480 1 0.011262 0.0266745 0.0205 0.0005 
481 1 0.0124396 0.0249776 0.0215179 0.00075 
482 1 0.0138954 0.0253087 0.0213732 0.00075 
483 1 0.0118513 0.025566 0.0205 0.0005 
484 1 0.0120979 0.0243377 0.0205 0.0005 
485 1 0.0122805 0.0237569 0.0212933 0.0005 
486 1 0.014913 0.0254477 0.0205 0.0005 
487 1 0.0104668 0.0228453 0.0207499 0.00075 
488 1 0.0150595 0.0236511 0.0205 0.0005 
489 1 0.0107292 0.0250356 0.0205 0.0005 
490 1 0.0132584 0.0231989 0.02075 0.00075 
491 1 0.0141614 0.0261628 0.0205 0.0005 
492 1 0.0100857 0.0258228 0.0205 0.0005 
493 1 0.0104364 0.0273354 0.0205 0.0005 
494 1 0.0141875 0.0264329 0.0221855 0.0005 
495 1 0.0128252 0.0270084 0.0212499 0.00125 
496 1 0.0152676 0.0245985 0.0209868 0.0005 
497 1 0.0147379 0.02698 0.0205 0.0005 
498 1 0.0146954 0.0263285 0.0213301 0.0005 
499 1 0.0145125 0.0272619 0.0216389 0.0005 
500 1 0.0158028 0.0263751 0.02075 0.00075 
501 1 0.0145518 0.0224393 0.02075 0.00075 
502 1 0.0142766 0.0238089 0.021142 0.0005 
503 1 0.0151918 0.0254715 0.0214685 0.0005 
504 1 0.0119057 0.0227094 0.021229 0.0005 
505 1 0.0102348 0.0267279 0.0212686 0.0005 
506 1 0.015379 0.0275834 0.0212533 0.0005 
507 1 0.0107895 0.0278225 0.0213684 0.0005 
508 1 0.0133926 0.0241498 0.0215505 0.0005 
509 1 0.0113057 0.0235515 0.0213813 0.0005 
510 1 0.00913134 0.026253 0.0212559 0.0005 
511 1 0.0155563 0.0269677 0.0220211 0.0005 
512 1 0.00915805 0.0246709 0.0219231 0.0005 
513 1 0.00825216 0.0257982 0.02141 0.0005 
514 1 0.0114866 0.0221672 0.0205 0.0005 
515 1 0.0159962 0.0251491 0.0205 0.0005 
516 1 0.0153531 0.0233301 0.0220704 0.001 
517 1 0.0113799 0.0276677 0.0205 0.0005 
518 1 0.00949362 0.0277149 0.0205001 0.0005 
519 1 0.0143869 0.0281535 0.02075 0.00075 
520 1 0.0150119 0.0279988 0.0220945 0.0005 
523 1 0.0147897 0.0247225 0.022021 0.0005 
1723 1 0.0110758 0.0223998 0.0221111 0.00075 
1708 1 0.00907763 0.027876 0.0221252 0.001 
651 1 0.0106223 0.028324 0.0205 0.0005 
375 1 0.0168815 0.0213241 0.02125 0.00125 
525 1 0.0160254 0.0227443 0.0205 0.0005 
526 1 0.0192579 0.0213545 0.02075 0.00075 
527 1 0.0214226 0.021409 0.0205 0.0005 
528 1 0.0199211 0.0216652 0.0217629 0.0005 
529 1 0.0189957 0.0221063 0.0217326 0.0005 
530 1 0.016688 0.0253015 0.0218747 0.001 
532 1 0.0204634 0.0217516 0.0205 0.0005 
533 1 0.021069 0.021797 0.021356 0.0005 
534 1 0.0234996 0.0217699 0.0216497 0.0005 
535 1 0.0160366 0.0275776 0.0205 0.0005 
536 1 0.0234907 0.021525 0.0205 0.0005 
538 1 0.0223529 0.0224861 0.0209999 0.001 
539 1 0.0201657 0.0248943 0.0204995 0.0005 
540 1 0.0163148 0.0239584 0.0207499 0.00075 
541 1 0.0197106 0.025786 0.0205 0.0005 
542 1 0.0183692 0.0225643 0.02075 0.00075 
543 1 0.0217233 0.0237544 0.0205 0.0005 
544 1 0.0234999 0.0261635 0.0205 0.0005 
545 1 0.0184851 0.0255327 0.02075 0.00075 
546 1 0.0232499 0.0239681 0.0207501 0.00075 
547 1 0.0234998 0.0231676 0.021687 0.0005 
548 1 0.0234999 0.027239 0.0204998 0.0005 
549 1 0.0228876 0.0253732 0.0212507 0.00075 
550 1 0.0219101 0.0255766 0.0204994 0.0005 
551 1 0.0179835 0.0240167 0.0207499 0.00075 
552 1 0.0222162 0.0246248 0.0205 0.0005 
553 1 0.0171339 0.0228998 0.0205 0.0005 
554 1 0.0169151 0.0258624 0.0205 0.0005 
555 1 0.0171753 0.0232391 0.0217456 0.00075 
556 1 0.0223986 0.0267 0.0207499 0.00075 
557 1 0.017118 0.0248832 0.0204999 0.0005 
558 1 0.0202036 0.0233143 0.0212499 0.00125 
559 1 0.0211905 0.0246312 0.0205 0.0005 
560 1 0.0184605 0.0246731 0.0220114 0.00075 
561 1 0.0175923 0.0272911 0.0212499 0.00125 
562 1 0.0190767 0.0266411 0.0205 0.0005 
563 1 0.020822 0.0257879 0.0215091 0.001 
564 1 0.0193642 0.0261919 0.0213504 0.0005 
565 1 0.0214964 0.022645 0.022221 0.0005 
566 1 0.0192204 0.0245529 0.0205 0.0005 
567 1 0.0234997 0.0267017 0.0213429 0.0005 
568 1 0.0234998 0.0260495 0.0221065 0.0005 
569 1 0.0195165 0.0250805 0.0212961 0.0005 
570 1 0.0184534 0.0259281 0.0219353 0.0005 
571 1 0.0225209 0.0280361 0.0205 0.0005 
572 1 0.0215615 0.0270969 0.0215891 0.0005 
573 1 0.0216056 0.0276333 0.0205 0.0005 
574 1 0.0200486 0.0279084 0.0212499 0.00125 
575 1 0.0185251 0.0234029 0.0217371 0.0005 
576 1 0.0194878 0.0256563 0.0221859 0.0005 
577 1 0.0234721 0.0277484 0.021371 0.0005 
578 1 0.0190265 0.0267626 0.0221021 0.0005 
1630 1 0.0199733 0.0247637 0.0222033 0.0005 
718 1 0.0235 0.0282389 0.0205 0.0005 
537 1 0.0164321 0.0266797 0.0224086 0.0005 
1746 1 0.0219 0.0282286 0.022002 0.00075 
1951 1 0.0183247 0.0225008 0.0223966 0.0005 
1818 1 0.0232195 0.0242969 0.0219576 0.0005 
372 1 0.0222581 0.0218247 0.0223751 0.0005 
451 1 0.000749884 0.0289003 0.02075 0.00075 
606 1 0.0020976 0.0286704 0.0217965 0.00075 
580 1 0.00050893 0.0314502 0.0205 0.0005 
581 1 0.00362446 0.0311548 0.0205 0.0005 
582 1 0.00170393 0.0332623 0.0207615 0.00075 
583 1 0.00307352 0.0291205 0.0207499 0.00075 
584 1 0.00538454 0.0327992 0.0207504 0.00075 
585 1 0.000499755 0.0332541 0.0214757 0.0005 
586 1 0.00181982 0.0299516 0.02075 0.00075 
587 1 0.00287395 0.0329093 0.0204999 0.0005 
588 1 0.00228855 0.0316191 0.0209999 0.001 
589 1 0.00194664 0.0286411 0.0204999 0.0005 
590 1 0.000499983 0.0301024 0.0204999 0.0005 
591 1 0.00644806 0.0334065 0.0205 0.0005 
592 1 0.00350218 0.0336872 0.0205 0.0005 
593 1 0.00450137 0.0336476 0.0205 0.0005 
595 1 0.0048494 0.0311339 0.0207499 0.00075 
596 1 0.00507063 0.0292834 0.0205 0.0005 
597 1 0.00636312 0.0312002 0.02075 0.00075 
598 1 0.00401976 0.0302233 0.0205009 0.0005 
599 1 0.00654607 0.0324112 0.0205 0.0005 
600 1 0.00739111 0.0341856 0.0207572 0.00075 
601 1 0.004238 0.0287247 0.0205 0.0005 
602 1 0.00665713 0.0292862 0.0212499 0.00125 
603 1 0.00365897 0.0306146 0.0216337 0.00075 
604 1 0.00505699 0.0299937 0.0212178 0.0005 
605 1 0.00482703 0.0284636 0.0215711 0.00075 
607 1 0.0071428 0.0318702 0.0214694 0.0005 
608 1 0.00565336 0.0306784 0.0216367 0.0005 
609 1 0.000750027 0.0320528 0.021712 0.00075 
610 1 0.00297901 0.0303606 0.0205034 0.0005 
611 1 0.00557802 0.0318182 0.0215012 0.0005 
612 1 0.000629805 0.03245 0.0205 0.0005 
613 1 0.00395688 0.0323392 0.0207536 0.00075 
614 1 0.000751663 0.0305548 0.0216376 0.00075 
616 1 0.00420048 0.0294821 0.0211518 0.0005 
617 1 0.000750574 0.0291751 0.0222257 0.00075 
618 1 0.00152011 0.0344788 0.0205 0.0005 
620 1 0.00195584 0.0305193 0.021971 0.0005 
621 1 0.00490886 0.0296015 0.0221274 0.0005 
622 1 0.00738775 0.0318713 0.0205 0.0005 
623 1 0.00709156 0.0309089 0.0217404 0.0005 
624 1 0.00282795 0.0331161 0.0214779 0.0005 
625 1 0.00726258 0.0341375 0.0221136 0.0005 
626 1 0.00741653 0.0329034 0.0205 0.0005 
627 1 0.00265945 0.0298635 0.0216718 0.0005 
628 1 0.000499865 0.0334717 0.0204999 0.0005 
631 1 0.00557801 0.0343382 0.02075 0.00075 
632 1 0.00119962 0.0342426 0.0217835 0.00075 
633 1 0.00624231 0.0342269 0.0218166 0.0005 
634 1 0.000500062 0.0344716 0.0205 0.0005 
635 1 0.00472019 0.0335655 0.021481 0.0005 
766 1 0.00655093 0.0350822 0.0205 0.0005 
751 1 0.00355868 0.0346857 0.0205 0.0005 
789 1 0.00742889 0.0351861 0.0215055 0.0005 
1659 1 0.0068077 0.033063 0.021647 0.00075 
1618 1 0.00259895 0.0341507 0.0205 0.0005 
1675 1 0.00341352 0.0323947 0.02188 0.0005 