ITEM: TIMESTEP
150000
ITEM: NUMBER OF ATOMS
1440
ITEM: BOX BOUNDS mm mm mm
-2.4e-06 0.0240024
-7.8e-06 0.0780078
-3e-06 0.030003
ITEM: ATOMS id type x y z radius 
324 1 0.00750542 0.00381215 0.0219995 0.002 
291 1 0.00278931 0.00150485 0.0215 0.0015 
368 1 0.000523375 0.000540869 0.0205 0.0005 
784 1 0.0056643 0.00200771 0.0207919 0.00075 
32 1 0.0054022 0.000506985 0.0205036 0.0005 
241 1 0.00444955 0.00204184 0.0204998 0.0005 
815 1 0.000596739 0.00158604 0.0205 0.0005 
448 1 0.00367298 0.00301391 0.0205 0.0005 
300 1 0.000508977 0.000527442 0.0217774 0.0005 
442 1 0.00100023 0.00317812 0.021 0.001 
816 1 0.00504104 0.00313131 0.0205 0.0005 
710 1 0.00439452 0.00052621 0.0205 0.0005 
527 1 0.000500005 0.00450104 0.0205 0.0005 
256 1 0.00050896 0.00546176 0.0207774 0.0005 
870 1 0.00759858 0.0059812 0.0207365 0.0005 
100 1 0.00479262 0.00178285 0.0216822 0.0005 
153 1 0.00556518 0.000743872 0.0214671 0.0005 
486 1 0.00346905 0.00515365 0.0223855 0.00225 
722 1 0.0015201 0.00561772 0.0205 0.0005 
864 1 0.00458627 0.000638111 0.0216619 0.0005 
503 1 0.000572288 0.00575643 0.0217342 0.0005 
561 1 0.00695211 0.00123786 0.0207519 0.00075 
501 1 0.00651683 0.000500263 0.0216636 0.0005 
64 1 0.00625609 0.00643792 0.0212608 0.001 
954 1 0.00754517 0.000503969 0.0215764 0.0005 
274 1 0.0076859 0.00696745 0.0205 0.0005 
75 1 0.00152221 0.00686463 0.02075 0.00075 
121 1 0.00873895 0.00652029 0.0204995 0.0005 
228 1 0.00849716 0.00554878 0.0204998 0.0005 
392 1 0.00841772 0.00675087 0.0223278 0.001 
490 1 0.00955887 0.00386618 0.0205006 0.0005 
199 1 0.0120911 0.00183154 0.0205008 0.0005 
395 1 0.0113343 0.00248533 0.0205 0.0005 
474 1 0.0141162 0.000791308 0.02075 0.00075 
282 1 0.0111087 0.00147051 0.0205 0.0005 
590 1 0.0108376 0.000503347 0.0205 0.0005 
176 1 0.0128711 0.000504381 0.0205047 0.0005 
289 1 0.0118221 0.000682359 0.0205057 0.0005 
362 1 0.00983708 0.000501339 0.0205002 0.0005 
370 1 0.00846864 0.000839428 0.0207502 0.00075 
783 1 0.0105472 0.00310443 0.0205027 0.0005 
51 1 0.0131064 0.0019904 0.0205 0.0005 
233 1 0.00991037 0.00172582 0.0207498 0.00075 
217 1 0.0105345 0.00414445 0.0204995 0.0005 
636 1 0.0116529 0.00588518 0.0205001 0.0005 
549 1 0.0101749 0.00373478 0.0214474 0.0005 
126 1 0.0121868 0.00395142 0.0216088 0.0015 
307 1 0.00883667 0.00231753 0.0205006 0.0005 
676 1 0.010648 0.000771967 0.0217086 0.00075 
209 1 0.0133593 0.00517073 0.0204999 0.0005 
730 1 0.00894942 0.00181468 0.0215808 0.0005 
764 1 0.010073 0.00567326 0.02125 0.00125 
311 1 0.0130422 0.00654877 0.0210003 0.001 
192 1 0.014564 0.00572213 0.0207499 0.00075 
763 1 0.00962467 0.0029541 0.0209413 0.0005 
66 1 0.0138208 0.00426828 0.0205 0.0005 
61 1 0.0148668 0.00472161 0.021435 0.0005 
108 1 0.0146948 0.00288272 0.0212498 0.00125 
1195 1 0.00804355 0.00134611 0.0218127 0.0005 
581 1 0.0117125 0.00648012 0.022139 0.00075 
89 1 0.00945746 0.000501433 0.021437 0.0005 
155 1 0.0126194 0.00126257 0.0220692 0.00125 
178 1 0.0156619 0.000761128 0.02075 0.00075 
364 1 0.0100366 0.00241481 0.0220773 0.00075 
161 1 0.0232504 0.000749818 0.0207499 0.00075 
159 1 0.0225619 0.00331095 0.0204999 0.0005 
204 1 0.0234981 0.00366925 0.0205 0.0005 
219 1 0.0215368 0.000999818 0.0209995 0.001 
333 1 0.0232499 0.00454289 0.0219516 0.00075 
142 1 0.0232494 0.00225187 0.0207499 0.00075 
200 1 0.0211128 0.00364979 0.0207507 0.00075 
340 1 0.0223492 0.00451982 0.0207521 0.00075 
452 1 0.0234982 0.00516563 0.0205 0.0005 
518 1 0.0204152 0.00232155 0.02075 0.00075 
185 1 0.0166221 0.00447445 0.0212495 0.00125 
31 1 0.0175875 0.00169789 0.0214999 0.0015 
123 1 0.0228941 0.00102685 0.0224963 0.001 
273 1 0.0222873 0.00307791 0.0219559 0.001 
113 1 0.0180603 0.00340311 0.0205063 0.0005 
544 1 0.0188963 0.0048949 0.0209999 0.001 
577 1 0.0232162 0.00601988 0.0214974 0.00075 
652 1 0.0178787 0.00600622 0.0219445 0.0005 
290 1 0.0192343 0.00317991 0.0211024 0.00075 
281 1 0.0207504 0.0042572 0.0220752 0.00075 
190 1 0.0175263 0.0061983 0.02075 0.00075 
57 1 0.0208452 0.00643226 0.0214999 0.0015 
143 1 0.0228152 0.00665823 0.0205 0.0005 
853 1 0.0187602 0.00648078 0.0212383 0.0005 
106 1 0.0225587 0.00545636 0.0224555 0.0005 
588 1 0.00330641 0.00758917 0.0205 0.0005 
360 1 0.00635748 0.0135808 0.0205 0.0005 
380 1 0.00501754 0.00889049 0.0205 0.0005 
154 1 0.00627217 0.0110081 0.020756 0.00075 
427 1 0.00512372 0.0108721 0.0214064 0.0005 
13 1 0.000595305 0.00898742 0.0205 0.0005 
390 1 0.000581649 0.00723185 0.0216075 0.0005 
879 1 0.00724715 0.00787487 0.0205003 0.0005 
137 1 0.000671153 0.0102111 0.0205 0.0005 
44 1 0.00479476 0.0126667 0.0207499 0.00075 
401 1 0.00668383 0.0126672 0.0221173 0.00125 
1166 1 0.00672342 0.00883163 0.021112 0.00075 
1234 1 0.00519045 0.0118493 0.0216083 0.0005 
323 1 0.00265545 0.011444 0.0219999 0.002 
887 1 0.00710125 0.00743323 0.0220333 0.0005 
820 1 0.000607895 0.0118968 0.0205 0.0005 
1067 1 0.00740506 0.0137409 0.0205 0.0005 
1359 1 0.00225141 0.00929466 0.0207611 0.0005 
713 1 0.00211027 0.0133675 0.0204996 0.0005 
881 1 0.000525042 0.0129637 0.0219837 0.0005 
911 1 0.0047376 0.012945 0.0219802 0.0005 
943 1 0.00301024 0.0138024 0.0205234 0.0005 
673 1 0.00384115 0.0138911 0.0215111 0.00075 
1070 1 0.00803665 0.00830934 0.0216271 0.00075 
891 1 0.00824605 0.00781169 0.0204999 0.0005 
171 1 0.0113973 0.00709133 0.0207504 0.00075 
35 1 0.00833332 0.010539 0.0215583 0.0015 
275 1 0.0128781 0.0102739 0.02075 0.00075 
46 1 0.00944597 0.00769093 0.0208298 0.00075 
80 1 0.0157422 0.010712 0.0209999 0.001 
556 1 0.0122787 0.0116531 0.02075 0.00075 
287 1 0.0110982 0.0111557 0.0205 0.0005 
714 1 0.0152695 0.0122365 0.0205 0.0005 
865 1 0.0135537 0.0113671 0.0205 0.0005 
756 1 0.0110452 0.00916677 0.0215501 0.0015 
318 1 0.0129411 0.00801144 0.0219576 0.00075 
686 1 0.0100308 0.0105359 0.0205001 0.0005 
975 1 0.0144207 0.0112864 0.0214682 0.0005 
10 1 0.0145497 0.0115187 0.0205 0.0005 
569 1 0.010714 0.0119152 0.0215039 0.0005 
447 1 0.00827812 0.00881894 0.0205 0.0005 
252 1 0.00974557 0.011496 0.0205034 0.0005 
33 1 0.0156905 0.00788819 0.0220182 0.002 
872 1 0.00845433 0.0127826 0.02075 0.00075 
188 1 0.0137592 0.0131734 0.0215021 0.0015 
772 1 0.0112927 0.012378 0.0205 0.0005 
709 1 0.0100899 0.0126918 0.0207496 0.00075 
1061 1 0.0111383 0.013097 0.0213461 0.0005 
342 1 0.0155357 0.0119763 0.0221921 0.00075 
110 1 0.0120324 0.0130517 0.0205 0.0005 
1028 1 0.0114312 0.0112643 0.0222938 0.00075 
1118 1 0.0102814 0.0110192 0.0217155 0.0005 
826 1 0.0144785 0.0101089 0.0222676 0.0005 
59 1 0.0110047 0.0137044 0.0205031 0.0005 
974 1 0.0119529 0.0139303 0.0209705 0.0005 
571 1 0.0130481 0.0106224 0.0224825 0.001 
189 1 0.0163209 0.01401 0.0205 0.0005 
319 1 0.0214988 0.00803853 0.0205 0.0005 
6 1 0.0229734 0.0085051 0.0209999 0.001 
293 1 0.0183859 0.0106515 0.0217687 0.00175 
735 1 0.0206251 0.0108999 0.0217803 0.0005 
308 1 0.0211736 0.00943955 0.021 0.001 
49 1 0.017656 0.00839492 0.0205 0.0005 
146 1 0.0204289 0.00822994 0.0205001 0.0005 
109 1 0.0195195 0.0077968 0.0204999 0.0005 
578 1 0.0228934 0.0105045 0.0210006 0.001 
139 1 0.01664 0.0126321 0.0209999 0.001 
90 1 0.0198661 0.00845556 0.0216334 0.00075 
71 1 0.0202407 0.0105038 0.0205 0.0005 
659 1 0.0184921 0.00793396 0.021333 0.00075 
967 1 0.0171193 0.0092834 0.0205071 0.0005 
130 1 0.0209037 0.012476 0.0205 0.0005 
41 1 0.0212871 0.0111707 0.0207513 0.00075 
231 1 0.0234889 0.0117922 0.0205019 0.0005 
279 1 0.0234852 0.00958228 0.0220251 0.0005 
693 1 0.0218008 0.00815989 0.0218692 0.0005 
725 1 0.0232496 0.0119158 0.0219753 0.00075 
697 1 0.0201194 0.0116451 0.0205 0.0005 
330 1 0.0223353 0.0122439 0.02075 0.00075 
78 1 0.0229254 0.0133173 0.0205 0.0005 
741 1 0.0177455 0.0138357 0.0215284 0.0005 
800 1 0.0197379 0.0126265 0.0205 0.0005 
538 1 0.0234996 0.0126639 0.0209983 0.0005 
1236 1 0.0187921 0.0132304 0.0213414 0.0005 
812 1 0.0231368 0.0131494 0.0221453 0.0005 
944 1 0.0235 0.0137112 0.0214013 0.0005 
794 1 0.0179438 0.0128939 0.0218004 0.0005 
592 1 0.0182029 0.0133916 0.0205 0.0005 
542 1 0.0166641 0.0136222 0.022443 0.00075 
910 1 0.0217921 0.0109574 0.0222861 0.00075 
272 1 0.0234996 0.0141597 0.0205022 0.0005 
439 1 0.0060136 0.0153388 0.0212499 0.00125 
174 1 0.000999688 0.0141997 0.0210678 0.001 
737 1 0.00401697 0.0146185 0.0205 0.0005 
646 1 0.00236141 0.0147384 0.0205 0.0005 
611 1 0.00752597 0.0148207 0.0205 0.0005 
70 1 0.000562246 0.0156642 0.0204999 0.0005 
508 1 0.00154529 0.0154764 0.0205006 0.0005 
695 1 0.00755361 0.0165145 0.02075 0.00075 
550 1 0.000626221 0.0192617 0.0205 0.0005 
1 1 0.00632044 0.0174089 0.02075 0.00075 
529 1 0.00125027 0.0175418 0.0212504 0.00125 
786 1 0.00724078 0.0170344 0.0218634 0.0005 
269 1 0.0038873 0.0193765 0.0212499 0.00125 
19 1 0.00404705 0.0168819 0.0212495 0.00125 
1077 1 0.00533797 0.0181952 0.020865 0.0005 
436 1 0.00485913 0.0181321 0.0224099 0.0005 
54 1 0.00613403 0.0194815 0.0209999 0.001 
877 1 0.00459852 0.0207846 0.0220148 0.0005 
888 1 0.00412905 0.0150749 0.0218224 0.0005 
1060 1 0.00531629 0.0191031 0.0222386 0.0005 
221 1 0.00918173 0.0184861 0.0214999 0.0015 
62 1 0.00943448 0.0149848 0.0221183 0.002 
43 1 0.0159986 0.0149567 0.0205 0.0005 
118 1 0.012763 0.0157846 0.02125 0.00125 
198 1 0.0137476 0.0180913 0.0212499 0.00125 
582 1 0.0156374 0.01798 0.0221438 0.00075 
717 1 0.0116182 0.0198029 0.0205016 0.0005 
1232 1 0.00875279 0.0167642 0.0205 0.0005 
934 1 0.0105155 0.0203465 0.0207557 0.00075 
1310 1 0.0109048 0.0178888 0.0205 0.0005 
1212 1 0.0110453 0.0189329 0.0206758 0.0005 
1338 1 0.0117355 0.0183353 0.0212757 0.0005 
838 1 0.0113917 0.0172537 0.0222728 0.001 
260 1 0.0164042 0.0165607 0.0209999 0.001 
450 1 0.0174993 0.0141323 0.0205 0.0005 
345 1 0.0181146 0.0150759 0.0204998 0.0005 
591 1 0.0232451 0.0154213 0.0207512 0.00075 
465 1 0.0174375 0.0176983 0.0205 0.0005 
350 1 0.0214598 0.0142641 0.0215019 0.0015 
719 1 0.0185108 0.016234 0.0207519 0.00075 
628 1 0.023472 0.0166321 0.0205 0.0005 
42 1 0.0232394 0.0178836 0.0209182 0.00075 
747 1 0.0223455 0.0162783 0.0205 0.0005 
523 1 0.0184586 0.014256 0.0209569 0.0005 
813 1 0.0218482 0.0172104 0.0205 0.0005 
787 1 0.018166 0.0169298 0.0218013 0.0005 
492 1 0.0225746 0.0190089 0.0205356 0.0005 
956 1 0.0194946 0.0141884 0.020882 0.0005 
238 1 0.0234986 0.0196254 0.0205 0.0005 
947 1 0.0170952 0.0188131 0.0211151 0.0005 
1216 1 0.0173539 0.0161603 0.0224439 0.00075 
1230 1 0.0171119 0.0149955 0.021346 0.00075 
566 1 0.0224614 0.0202771 0.02075 0.00075 
837 1 0.0177827 0.0191262 0.0221345 0.0005 
1333 1 0.0224167 0.0166997 0.0220022 0.0005 
1091 1 0.0190673 0.0176466 0.0217649 0.0005 
1398 1 0.0207218 0.0212606 0.0206998 0.0005 
1189 1 0.0234133 0.016949 0.0218703 0.0005 
1193 1 0.0180491 0.0145244 0.022228 0.0005 
1427 1 0.0194679 0.0154181 0.0211652 0.0005 
678 1 0.00100004 0.0214738 0.0209999 0.001 
896 1 0.00277044 0.0228756 0.0205108 0.0005 
482 1 0.000596391 0.0229427 0.0205 0.0005 
12 1 0.000972492 0.0243239 0.0207501 0.00075 
700 1 0.00170739 0.023072 0.0211743 0.00075 
600 1 0.0042445 0.023484 0.0212629 0.00125 
1004 1 0.00292886 0.021647 0.02075 0.00075 
180 1 0.00729613 0.0220609 0.0219994 0.002 
36 1 0.00301758 0.0264975 0.0217545 0.00175 
688 1 0.000532237 0.0225114 0.0221019 0.0005 
1293 1 0.00263564 0.0214747 0.0219694 0.0005 
952 1 0.00575417 0.0272524 0.0205 0.0005 
1081 1 0.00710574 0.026904 0.0205 0.0005 
1416 1 0.00214647 0.0244745 0.0212234 0.0005 
624 1 0.00930546 0.0217439 0.0205 0.0005 
152 1 0.0131831 0.0267438 0.0205 0.0005 
780 1 0.0124622 0.0246305 0.0205 0.0005 
353 1 0.0135074 0.0251906 0.0205 0.0005 
144 1 0.0152663 0.0225048 0.0209999 0.001 
978 1 0.00895338 0.0255043 0.0205 0.0005 
1233 1 0.0121916 0.0259034 0.0212488 0.001 
915 1 0.0128205 0.0238039 0.0222138 0.00075 
1264 1 0.0101176 0.0226838 0.021396 0.0005 
1292 1 0.0149428 0.0270996 0.0211997 0.00075 
1294 1 0.0105603 0.0238885 0.0217873 0.0005 
1350 1 0.0156138 0.0259706 0.0209924 0.0005 
1394 1 0.00921519 0.0250258 0.0224069 0.001 
1164 1 0.0129729 0.0213171 0.0220462 0.00075 
1221 1 0.0153849 0.0261675 0.0229537 0.00075 
1180 1 0.0119491 0.022067 0.0219055 0.0005 
512 1 0.0207327 0.0268031 0.0205 0.0005 
862 1 0.0197052 0.0266096 0.0205002 0.0005 
1020 1 0.0224655 0.0223985 0.0214999 0.0015 
982 1 0.0180595 0.0245613 0.0205 0.0005 
957 1 0.0234754 0.0278385 0.0205385 0.0005 
1113 1 0.0190012 0.0274878 0.0211757 0.00075 
1288 1 0.0193081 0.0227697 0.0213081 0.0005 
1105 1 0.0203295 0.0229844 0.0205857 0.0005 
1311 1 0.0175917 0.023526 0.0211924 0.0005 
1320 1 0.0185176 0.0214706 0.0219066 0.00075 
1044 1 0.0224582 0.0283748 0.0220447 0.00125 
1361 1 0.0169776 0.0274301 0.020792 0.00075 
1048 1 0.0190525 0.0242661 0.0218419 0.00075 
1415 1 0.0207932 0.0243792 0.0205403 0.0005 
1087 1 0.0210391 0.0261812 0.0221735 0.0005 
1202 1 0.0184144 0.0239382 0.0233309 0.0005 
1424 1 0.0172173 0.0249643 0.0231113 0.00075 
162 1 0.000544315 0.0313728 0.0205 0.0005 
249 1 0.00249131 0.0347495 0.0220541 0.002 
259 1 0.0014742 0.0318701 0.0205039 0.0005 
534 1 0.00305567 0.0289641 0.02075 0.00075 
522 1 0.000754461 0.0328414 0.0208295 0.00075 
672 1 0.00460179 0.0335655 0.0207493 0.00075 
348 1 0.00578648 0.0325461 0.0205135 0.0005 
831 1 0.00482951 0.0284249 0.0209999 0.001 
535 1 0.000522898 0.035025 0.0205016 0.0005 
337 1 0.00347897 0.0325384 0.02075 0.00075 
897 1 0.000500277 0.0340218 0.0205002 0.0005 
980 1 0.00650112 0.0318438 0.0205 0.0005 
844 1 0.00448317 0.0349644 0.0205 0.0005 
991 1 0.00566047 0.0305225 0.0212843 0.00125 
638 1 0.00545121 0.033375 0.0220642 0.00075 
925 1 0.00719553 0.0339302 0.0212504 0.00125 
483 1 0.00070005 0.0291709 0.0207692 0.0005 
904 1 0.00696506 0.0283433 0.0205278 0.0005 
1103 1 0.0074133 0.0323295 0.0205 0.0005 
338 1 0.00239245 0.0308482 0.0223104 0.00175 
1406 1 0.00412738 0.0289194 0.0222883 0.0005 
505 1 0.0082981 0.0316675 0.0206666 0.0005 
261 1 0.0154945 0.0301116 0.0205067 0.0005 
886 1 0.0112979 0.0322909 0.0205015 0.0005 
138 1 0.0100328 0.0318584 0.0205 0.0005 
919 1 0.00877436 0.0293204 0.0217496 0.00175 
861 1 0.0134805 0.0293449 0.02075 0.00075 
471 1 0.00969334 0.0337543 0.0212499 0.00125 
984 1 0.0148303 0.0321535 0.0214999 0.0015 
1192 1 0.0127852 0.0306513 0.020513 0.0005 
1249 1 0.0151985 0.028782 0.0220387 0.00075 
1093 1 0.0155385 0.0302441 0.0224634 0.00075 
1041 1 0.0116035 0.0311388 0.0221104 0.0015 
1330 1 0.0137249 0.0307933 0.0224733 0.0005 
1419 1 0.0155742 0.0351139 0.0208935 0.00075 
557 1 0.0213434 0.0306679 0.0212499 0.00125 
1015 1 0.0234882 0.029797 0.0205 0.0005 
698 1 0.0183952 0.0289573 0.02075 0.00075 
609 1 0.0171701 0.0320698 0.0205 0.0005 
304 1 0.0233001 0.0310748 0.0205 0.0005 
1083 1 0.017134 0.0304297 0.0212499 0.00125 
909 1 0.0232815 0.0323448 0.0211963 0.0005 
1120 1 0.0206646 0.0325145 0.0207531 0.00075 
916 1 0.0178142 0.0288992 0.02186 0.0005 
1307 1 0.0207289 0.0337764 0.0205327 0.0005 
1153 1 0.0177268 0.0338135 0.0210089 0.001 
1142 1 0.0214439 0.0340319 0.0214618 0.0005 
1335 1 0.0186271 0.0315923 0.0218492 0.0005 
1348 1 0.0163911 0.0285086 0.0205 0.0005 
1273 1 0.0218898 0.0352809 0.0224501 0.0005 
1414 1 0.0227126 0.0346045 0.0222568 0.0005 
60 1 0.00556833 0.0368816 0.0217499 0.00175 
451 1 0.000753764 0.0390713 0.02075 0.00075 
433 1 0.00275514 0.0421008 0.0205 0.0005 
386 1 0.00165967 0.0410123 0.0205 0.0005 
366 1 0.0011836 0.0364338 0.0205 0.0005 
680 1 0.0024305 0.0374137 0.02075 0.00075 
519 1 0.000615279 0.0404092 0.0205 0.0005 
668 1 0.00138814 0.0419761 0.0205004 0.0005 
247 1 0.00209741 0.0397384 0.02075 0.00075 
733 1 0.0031067 0.040447 0.0205 0.0005 
1108 1 0.000778169 0.037573 0.0208177 0.00075 
615 1 0.00621596 0.0387171 0.0205 0.0005 
554 1 0.000757291 0.04024 0.022381 0.0005 
1186 1 0.00398605 0.0420298 0.0205 0.0005 
316 1 0.000502178 0.0362391 0.0212119 0.0005 
1276 1 0.00407374 0.0393956 0.0215397 0.001 
1177 1 0.00600636 0.0405497 0.0218528 0.00125 
570 1 0.0065399 0.0422239 0.0205 0.0005 
309 1 0.00759305 0.0421737 0.0205604 0.0005 
626 1 0.00767998 0.0409252 0.02075 0.00075 
640 1 0.0112718 0.0360576 0.02075 0.00075 
91 1 0.00908623 0.0370145 0.02075 0.00075 
514 1 0.0110338 0.0402293 0.0205 0.0005 
641 1 0.0107312 0.0384322 0.0209999 0.001 
949 1 0.00802877 0.039187 0.0207499 0.00075 
1018 1 0.0151208 0.0412108 0.0205 0.0005 
1019 1 0.0159411 0.0370015 0.0205 0.0005 
669 1 0.00888597 0.0382607 0.021962 0.001 
835 1 0.0103199 0.0369909 0.0205 0.0005 
1134 1 0.00981339 0.0357025 0.02075 0.00075 
802 1 0.0126005 0.0383384 0.02075 0.00075 
1033 1 0.0121657 0.0411198 0.0209999 0.001 
1101 1 0.0103179 0.0421049 0.0207578 0.00075 
960 1 0.00938242 0.0360062 0.0222535 0.00075 
1278 1 0.0140461 0.0413749 0.0205 0.0005 
1154 1 0.0119085 0.0355085 0.021682 0.0005 
1043 1 0.014576 0.0372764 0.0210714 0.001 
1107 1 0.013238 0.0357653 0.0211928 0.00075 
1167 1 0.0158632 0.0369206 0.0219603 0.0005 
1131 1 0.0135354 0.0393747 0.0205798 0.0005 
973 1 0.0138463 0.0403445 0.0205463 0.0005 
901 1 0.0120113 0.0376296 0.022205 0.00075 
1148 1 0.0157667 0.0381338 0.0214286 0.0005 
1400 1 0.0147489 0.0393661 0.0222483 0.0005 
268 1 0.0154724 0.0384428 0.0205 0.0005 
1254 1 0.00839366 0.0401967 0.0223355 0.001 
990 1 0.0215926 0.035523 0.0209999 0.001 
1133 1 0.016425 0.0417592 0.0207439 0.00075 
1145 1 0.0178122 0.035724 0.0207631 0.00075 
1003 1 0.0189328 0.0407175 0.0207527 0.00075 
374 1 0.023177 0.0388448 0.0207828 0.00075 
394 1 0.0174705 0.0388316 0.0205 0.0005 
326 1 0.0234995 0.0400192 0.0205003 0.0005 
650 1 0.0218817 0.0406117 0.0215171 0.0015 
959 1 0.0202272 0.0368475 0.0205 0.0005 
848 1 0.0213315 0.0384638 0.0207511 0.00075 
993 1 0.0234993 0.0423515 0.0205 0.0005 
996 1 0.0169262 0.0368305 0.0205 0.0005 
878 1 0.0207843 0.0368578 0.0224805 0.00075 
892 1 0.0180454 0.0372346 0.0208823 0.00075 
856 1 0.0170423 0.0379097 0.0205016 0.0005 
1261 1 0.023011 0.0359556 0.0205 0.0005 
986 1 0.0200252 0.0378271 0.0213021 0.00075 
1140 1 0.0198851 0.04085 0.0215518 0.0005 
1117 1 0.0168444 0.0405892 0.0206335 0.0005 
1181 1 0.0187948 0.0368959 0.0223526 0.00075 
1095 1 0.0160737 0.0379659 0.022394 0.0005 
584 1 0.00524406 0.0426619 0.02075 0.00075 
579 1 0.000823325 0.0444525 0.02075 0.00075 
242 1 0.00540106 0.0441286 0.0205 0.0005 
814 1 0.00419591 0.0443429 0.0207588 0.00075 
423 1 0.0011108 0.0461707 0.0209999 0.001 
347 1 0.00593392 0.0459806 0.0207521 0.00075 
543 1 0.00129232 0.0484039 0.0212499 0.00125 
855 1 0.00440949 0.0463832 0.0205 0.0005 
3 1 0.00242629 0.0495472 0.0205 0.0005 
402 1 0.00424061 0.0486401 0.0217497 0.00175 
712 1 0.00655291 0.0487866 0.02075 0.00075 
1242 1 0.00488082 0.0453561 0.0205 0.0005 
1251 1 0.0036575 0.045641 0.0205 0.0005 
1100 1 0.00778871 0.0478678 0.0217216 0.00075 
987 1 0.00583491 0.0437657 0.0213324 0.0005 
40 1 0.00783343 0.0481401 0.0205 0.0005 
682 1 0.00780991 0.0452986 0.0210568 0.0005 
1387 1 0.00629877 0.0462246 0.0224512 0.001 
762 1 0.00100872 0.0452229 0.0221657 0.0005 
883 1 0.0132715 0.0431305 0.0205 0.0005 
328 1 0.00995141 0.0433854 0.0205 0.0005 
969 1 0.0150118 0.0450083 0.0205 0.0005 
405 1 0.0133139 0.0475371 0.0205 0.0005 
453 1 0.0110694 0.0452042 0.0219998 0.002 
335 1 0.011203 0.0472536 0.0205 0.0005 
533 1 0.0080101 0.0467205 0.02075 0.00075 
1194 1 0.0121657 0.043115 0.0205 0.0005 
1201 1 0.0125885 0.0488299 0.02075 0.00075 
1240 1 0.0142363 0.0454015 0.0215174 0.00075 
367 1 0.0101682 0.0493106 0.0217497 0.00175 
1297 1 0.0141049 0.0434269 0.0219484 0.00075 
1306 1 0.0150157 0.0464517 0.02075 0.00075 
1023 1 0.0125098 0.0429035 0.0217396 0.0005 
985 1 0.0184456 0.0436067 0.0205 0.0005 
1062 1 0.0229752 0.042784 0.0215511 0.00075 
485 1 0.0232079 0.0470932 0.02075 0.00075 
499 1 0.0200277 0.0487778 0.0212499 0.00125 
804 1 0.0235002 0.0440344 0.0205002 0.0005 
935 1 0.0195872 0.0431922 0.020591 0.0005 
970 1 0.0227546 0.0450045 0.0207552 0.00075 
859 1 0.0217152 0.0477024 0.02075 0.00075 
1097 1 0.0199908 0.0445773 0.02075 0.00075 
1155 1 0.019994 0.0468528 0.0211488 0.0005 
1271 1 0.0225778 0.0434989 0.0205 0.0005 
1289 1 0.0194413 0.0458159 0.020503 0.0005 
1135 1 0.0212348 0.0426451 0.0207516 0.00075 
1319 1 0.0172836 0.0462108 0.0212431 0.0005 
1334 1 0.0171814 0.0433803 0.022287 0.0005 
917 1 0.0232426 0.0460452 0.0219186 0.00075 
963 1 0.0222437 0.0448123 0.0219579 0.0005 
1299 1 0.0214258 0.0439703 0.0215272 0.00075 
1411 1 0.0183395 0.0435287 0.0218402 0.00075 
1426 1 0.0178977 0.0476444 0.0209278 0.00075 
740 1 0.000500012 0.0497308 0.0220709 0.0005 
495 1 0.00769804 0.0497229 0.0222616 0.00075 
354 1 0.00320888 0.050368 0.0205004 0.0005 
424 1 0.00709405 0.0501896 0.02075 0.00075 
265 1 0.00559651 0.0505665 0.0207608 0.00075 
145 1 0.00170709 0.0512339 0.0214999 0.0015 
704 1 0.00336272 0.0517775 0.0205034 0.0005 
788 1 0.00519221 0.0509136 0.0222699 0.00075 
122 1 0.0015419 0.053873 0.0210153 0.001 
866 1 0.000503079 0.0558451 0.0205 0.0005 
525 1 0.00132305 0.0552679 0.0205 0.0005 
487 1 0.00406842 0.0561198 0.0224438 0.00225 
705 1 0.00755244 0.0520871 0.0225228 0.0015 
230 1 0.00294028 0.0534383 0.0205165 0.0005 
637 1 0.000643138 0.0549874 0.0217204 0.0005 
194 1 0.000759781 0.0563885 0.0218873 0.00075 
551 1 0.00361311 0.0526412 0.0221483 0.00075 
1382 1 0.00405886 0.0507445 0.0209735 0.0005 
1421 1 0.00149177 0.0530415 0.0223412 0.0005 
371 1 0.013246 0.050918 0.0205 0.0005 
496 1 0.00850587 0.0508957 0.02075 0.00075 
977 1 0.0113013 0.0517489 0.0205 0.0005 
923 1 0.0105959 0.0564696 0.0205 0.0005 
936 1 0.0101792 0.0554567 0.0205194 0.0005 
1151 1 0.0150512 0.053401 0.0205044 0.0005 
792 1 0.0149065 0.0555939 0.0212499 0.00125 
1260 1 0.0100142 0.0538519 0.0212555 0.00125 
1089 1 0.0135283 0.0548215 0.0204994 0.0005 
278 1 0.0133855 0.0547184 0.0218302 0.0005 
1054 1 0.0113962 0.0548133 0.0222675 0.0005 
711 1 0.0161608 0.0565834 0.0205028 0.0005 
1363 1 0.0169102 0.0511154 0.0205 0.0005 
410 1 0.018268 0.0503633 0.0205 0.0005 
168 1 0.0224943 0.0501042 0.0215 0.0015 
467 1 0.0164823 0.0533823 0.0213097 0.001 
133 1 0.0179602 0.0513941 0.0205511 0.0005 
769 1 0.0209184 0.0509473 0.0205 0.0005 
976 1 0.0177411 0.0536777 0.0205 0.0005 
653 1 0.0171438 0.0567949 0.0205 0.0005 
8 1 0.0180706 0.0565027 0.0215033 0.0005 
776 1 0.0185665 0.0528591 0.0205 0.0005 
702 1 0.0228607 0.0525326 0.0205 0.0005 
415 1 0.0234952 0.0533554 0.0205 0.0005 
431 1 0.0174502 0.0551288 0.0210028 0.001 
573 1 0.0203693 0.0526411 0.0215031 0.0015 
73 1 0.0226388 0.0551446 0.0209999 0.001 
470 1 0.0211935 0.0554917 0.0205 0.0005 
258 1 0.0201946 0.0559608 0.0204997 0.0005 
785 1 0.0188873 0.0541602 0.0207507 0.00075 
661 1 0.019954 0.0551412 0.0217324 0.001 
1102 1 0.023499 0.0517283 0.0205 0.0005 
1005 1 0.0234602 0.0539307 0.0214975 0.0005 
649 1 0.0165251 0.0562503 0.0213722 0.0005 
1146 1 0.0188696 0.0555919 0.0206415 0.0005 
1079 1 0.0180899 0.0564649 0.0205 0.0005 
690 1 0.0189543 0.0515507 0.0205052 0.0005 
829 1 0.0181694 0.0531199 0.0217023 0.00075 
1031 1 0.0190971 0.0565399 0.0223422 0.00075 
777 1 0.0212511 0.0545083 0.0212329 0.0005 
1200 1 0.0205531 0.0506026 0.0216175 0.0005 
1169 1 0.0171497 0.0560534 0.022155 0.0005 
357 1 0.00050019 0.0568457 0.0205 0.0005 
567 1 0.00223784 0.0568327 0.0205034 0.0005 
489 1 0.0076083 0.0579298 0.021785 0.00175 
773 1 0.00563097 0.0578972 0.0205 0.0005 
510 1 0.00140538 0.0581789 0.0212729 0.00125 
331 1 0.000500648 0.059873 0.0205028 0.0005 
781 1 0.00728706 0.0597471 0.0204994 0.0005 
94 1 0.00583802 0.0599804 0.0209991 0.001 
1199 1 0.00477283 0.0609369 0.0205009 0.0005 
361 1 0.00600232 0.0613901 0.0205038 0.0005 
116 1 0.00704502 0.0607165 0.0204994 0.0005 
378 1 0.00117575 0.0611047 0.0210307 0.001 
899 1 0.00512501 0.061873 0.020505 0.0005 
24 1 0.00750825 0.0622121 0.0212791 0.00125 
421 1 0.00197491 0.0624681 0.0205 0.0005 
446 1 0.00372943 0.0631236 0.0217497 0.00175 
244 1 0.000503385 0.0625592 0.0205 0.0005 
379 1 0.0056377 0.0627319 0.0204999 0.0005 
381 1 0.00128063 0.0631932 0.0212485 0.00075 
267 1 0.0005006 0.0597455 0.0215065 0.0005 
665 1 0.0035035 0.0598487 0.0218819 0.0015 
922 1 0.000574335 0.0603586 0.0222936 0.0005 
88 1 0.00965893 0.0571444 0.0205 0.0005 
1156 1 0.0152657 0.0573522 0.021536 0.0005 
907 1 0.00831799 0.0606354 0.0215169 0.0005 
1115 1 0.0155875 0.0577638 0.0205637 0.0005 
147 1 0.0105802 0.0576777 0.0205 0.0005 
771 1 0.00897804 0.0616537 0.0205 0.0005 
11 1 0.0116914 0.0571176 0.02075 0.00075 
373 1 0.010373 0.0634809 0.02075 0.00075 
81 1 0.011926 0.0588949 0.0207615 0.00075 
493 1 0.0134256 0.059658 0.0206516 0.0005 
760 1 0.0133726 0.0608551 0.0205 0.0005 
1010 1 0.0151651 0.0609162 0.0205 0.0005 
580 1 0.0146895 0.0596417 0.02075 0.00075 
860 1 0.00886848 0.0635811 0.0207558 0.00075 
1127 1 0.0106253 0.0584455 0.0215182 0.00075 
1171 1 0.00969196 0.0600976 0.0211068 0.00075 
593 1 0.0138735 0.0572711 0.02075 0.00075 
1218 1 0.010704 0.0594248 0.0205 0.0005 
1237 1 0.011653 0.058079 0.0221363 0.0005 
1327 1 0.0145081 0.0579146 0.0223582 0.00075 
1322 1 0.0131078 0.0583754 0.0205683 0.0005 
1248 1 0.0151804 0.0624406 0.0220052 0.0005 
1255 1 0.0123413 0.0598961 0.0222572 0.0005 
1412 1 0.0109208 0.0619067 0.0222988 0.00125 
1428 1 0.0132199 0.0629116 0.0217887 0.0005 
306 1 0.0192768 0.0567715 0.0207499 0.00075 
716 1 0.016098 0.0617048 0.0206744 0.0005 
48 1 0.0213083 0.0570766 0.0212589 0.00125 
863 1 0.02325 0.0576965 0.0221071 0.00075 
112 1 0.0232446 0.0570571 0.02075 0.00075 
414 1 0.0163459 0.0591263 0.0209999 0.001 
445 1 0.0234954 0.0584861 0.0205 0.0005 
26 1 0.0184943 0.0625033 0.0217814 0.00175 
222 1 0.0213778 0.0589679 0.0205 0.0005 
186 1 0.0233494 0.0595055 0.0205 0.0005 
455 1 0.019095 0.0590419 0.0217803 0.00175 
129 1 0.0201123 0.0611448 0.0205 0.0005 
45 1 0.02275 0.0616682 0.0212493 0.00125 
313 1 0.0211366 0.0604525 0.02075 0.00075 
477 1 0.02103 0.0620843 0.0205 0.0005 
595 1 0.0173667 0.0605252 0.0207498 0.00075 
707 1 0.0229858 0.0633087 0.0223691 0.00075 
851 1 0.0207463 0.0615765 0.0215184 0.0005 
778 1 0.0164388 0.0629037 0.0205 0.0005 
150 1 0.0221823 0.0593875 0.0221021 0.00125 
38 1 0.0207821 0.0633181 0.02075 0.00075 
502 1 0.0167603 0.057526 0.0221253 0.001 
165 1 0.00124865 0.0641938 0.0205 0.0005 
619 1 0.00621608 0.0640315 0.0209989 0.001 
1076 1 0.00559855 0.0648199 0.0221139 0.0005 
574 1 0.0077275 0.0640955 0.0205 0.0005 
105 1 0.000500121 0.0648569 0.0205 0.0005 
218 1 0.00174498 0.0651133 0.0216341 0.001 
694 1 0.00364598 0.0657751 0.0209999 0.001 
806 1 0.005213 0.0659533 0.0217571 0.00075 
634 1 0.000754258 0.0662566 0.02075 0.00075 
948 1 0.00542201 0.0687973 0.0205252 0.0005 
667 1 0.00752991 0.0655394 0.0209999 0.001 
264 1 0.000501274 0.0674604 0.0205 0.0005 
601 1 0.00230782 0.0680711 0.0217498 0.00175 
7 1 0.000505044 0.0688644 0.0205001 0.0005 
226 1 0.000774491 0.070196 0.0207581 0.00075 
86 1 0.00728727 0.0703404 0.021 0.001 
532 1 0.00738036 0.0679376 0.0216899 0.0015 
96 1 0.000542226 0.0695764 0.0218277 0.0005 
953 1 0.0051278 0.0689319 0.0221759 0.001 
894 1 0.00665613 0.0661447 0.0222204 0.0005 
1163 1 0.000577064 0.0661069 0.0219845 0.0005 
843 1 0.0037036 0.0702782 0.0222497 0.0005 
540 1 0.015421 0.0672879 0.02125 0.00125 
703 1 0.0116723 0.0664805 0.0205 0.0005 
140 1 0.0156531 0.0689693 0.0205074 0.0005 
926 1 0.0113593 0.0675672 0.0205728 0.0005 
187 1 0.01146 0.0700759 0.0205165 0.0005 
736 1 0.0104013 0.0678955 0.0205157 0.0005 
103 1 0.00987973 0.0662191 0.0215267 0.0015 
325 1 0.0135207 0.069174 0.0205002 0.0005 
1071 1 0.0149177 0.0697378 0.0223301 0.0005 
720 1 0.0106037 0.0691421 0.0207538 0.00075 
1185 1 0.0138709 0.0701104 0.0205031 0.0005 
102 1 0.0147686 0.0696406 0.0205 0.0005 
1283 1 0.0134547 0.0681759 0.0205151 0.0005 
1039 1 0.0119699 0.0692874 0.0213557 0.00075 
1304 1 0.0119712 0.0683568 0.0205 0.0005 
817 1 0.0122277 0.067662 0.021951 0.001 
1316 1 0.0105269 0.0682419 0.0220133 0.0005 
795 1 0.00855966 0.0699133 0.0224143 0.00075 
1125 1 0.0169334 0.0683918 0.0205 0.0005 
564 1 0.0235001 0.0640403 0.0214959 0.0005 
179 1 0.0234588 0.0641186 0.0204999 0.0005 
1160 1 0.016958 0.0659412 0.0212766 0.00075 
1204 1 0.0179089 0.066389 0.0205215 0.0005 
1126 1 0.0195177 0.0667573 0.0209991 0.00075 
271 1 0.021432 0.0645547 0.0205 0.0005 
344 1 0.01829 0.0649013 0.0211056 0.00075 
696 1 0.0193823 0.0641292 0.0205 0.0005 
84 1 0.02275 0.0656021 0.0212499 0.00125 
964 1 0.0180931 0.0696563 0.0207492 0.00075 
411 1 0.0208266 0.0658269 0.02075 0.00075 
469 1 0.0200406 0.0648873 0.0205 0.0005 
255 1 0.0217759 0.0668602 0.0205003 0.0005 
157 1 0.0229888 0.0678255 0.021 0.001 
104 1 0.0234988 0.069146 0.0205 0.0005 
355 1 0.0206252 0.067055 0.0205 0.0005 
18 1 0.0213375 0.0678262 0.0205 0.0005 
456 1 0.0184991 0.0675575 0.021483 0.0005 
478 1 0.0204984 0.0693397 0.0205 0.0005 
225 1 0.0225096 0.0693124 0.0205 0.0005 
39 1 0.0204625 0.0705639 0.02075 0.00075 
117 1 0.0214968 0.0689177 0.0211225 0.00075 
645 1 0.0225931 0.0688708 0.0223471 0.00075 
14 1 0.0235 0.0701514 0.0205 0.0005 
541 1 0.0221924 0.0706924 0.021 0.001 
589 1 0.0187736 0.0658843 0.0205003 0.0005 
250 1 0.0210959 0.0672638 0.0221745 0.00125 
131 1 0.0234989 0.0701556 0.021509 0.0005 
586 1 0.0212898 0.0698817 0.0218916 0.0005 
873 1 0.023493 0.0691552 0.0215073 0.0005 
610 1 0.0223418 0.0700959 0.0223685 0.0005 
377 1 0.0234768 0.0697533 0.0224331 0.0005 
314 1 0.00239801 0.0714407 0.0212496 0.00125 
332 1 0.000501352 0.0713924 0.0205 0.0005 
263 1 0.00514161 0.0715196 0.0215063 0.0015 
558 1 0.000750139 0.0725931 0.0207527 0.00075 
745 1 0.0049064 0.0737585 0.0214712 0.0005 
76 1 0.00282925 0.0729982 0.0205044 0.0005 
243 1 0.00302284 0.0732571 0.0224213 0.001 
299 1 0.0047181 0.0736107 0.0205001 0.0005 
629 1 0.00571575 0.0753923 0.0205 0.0005 
167 1 0.00179581 0.0739729 0.0210105 0.001 
351 1 0.00563519 0.0732014 0.0205 0.0005 
210 1 0.00617037 0.0767621 0.0209997 0.001 
149 1 0.000575644 0.0774943 0.020501 0.0005 
69 1 0.00386518 0.0763911 0.0212592 0.00075 
565 1 0.00393304 0.0774579 0.0205 0.0005 
560 1 0.000499999 0.0757515 0.0205 0.0005 
22 1 0.00183376 0.077248 0.02075 0.00075 
744 1 0.00217238 0.0756633 0.0207521 0.00075 
644 1 0.00375866 0.0746629 0.0209999 0.001 