ITEM: TIMESTEP
730000
ITEM: NUMBER OF ATOMS
3324
ITEM: BOX BOUNDS mm mm mm
-2.4e-06 0.0240024
-7.8e-06 0.0780078
-3e-06 0.030003
ITEM: ATOMS id type x y z radius 
1 1 0.00336759 0.00219581 0.0214998 0.0015 
2 1 0.000499969 0.00149987 0.0205 0.0005 
3 1 0.00549987 0.00409198 0.0207499 0.00075 
4 1 0.00474496 0.000499917 0.0205 0.0005 
5 1 0.00437737 0.00360266 0.0204998 0.0005 
6 1 0.00274507 0.000499982 0.0205 0.0005 
7 1 0.00465838 0.00594894 0.0205 0.0005 
8 1 0.000499969 0.000499939 0.0205 0.0005 
9 1 0.000999853 0.00282274 0.0209999 0.001 
10 1 0.00703384 0.00539815 0.0205 0.0005 
11 1 0.00374502 0.00050003 0.0205 0.0005 
12 1 0.000500514 0.00539752 0.0205 0.0005 
13 1 0.00631621 0.00319378 0.0214283 0.0005 
14 1 0.00494476 0.00147964 0.0205 0.0005 
15 1 0.00115652 0.0062242 0.0205 0.0005 
16 1 0.00595893 0.00147662 0.0204999 0.0005 
17 1 0.00049997 0.00414559 0.0204999 0.0005 
18 1 0.00545522 0.00259281 0.02075 0.00075 
19 1 0.00610306 0.000499998 0.0216609 0.0005 
20 1 0.00574494 0.000499893 0.0204999 0.0005 
21 1 0.000731767 0.00049997 0.0214774 0.0005 
22 1 0.00691539 0.00224952 0.0207499 0.00075 
23 1 0.00162251 0.000989667 0.0207499 0.00075 
24 1 0.00694019 0.000749885 0.0207669 0.00075 
25 1 0.0032248 0.00392303 0.0205 0.0005 
27 1 0.00260147 0.00490888 0.0205 0.0005 
28 1 0.00223731 0.00350797 0.0204998 0.0005 
29 1 0.00179191 0.000749987 0.0222209 0.00075 
31 1 0.000499995 0.00147246 0.0214995 0.0005 
32 1 0.000499953 0.00626337 0.0212542 0.0005 
33 1 0.00175571 0.00438048 0.021254 0.00075 
34 1 0.00656115 0.00347332 0.0205 0.0005 
36 1 0.00530103 0.000953863 0.0212724 0.0005 
37 1 0.00308992 0.00452776 0.0212849 0.0005 
38 1 0.00442751 0.000500008 0.0214483 0.0005 
40 1 0.000500073 0.00050033 0.0224525 0.0005 
41 1 0.00754929 0.00329738 0.0205 0.0005 
43 1 0.00720689 0.00423683 0.0204998 0.0005 
1724 1 0.00581955 0.00555733 0.0207499 0.00075 
1770 1 0.00168353 0.00537443 0.0204998 0.0005 
1665 1 0.00113431 0.00549383 0.0213267 0.0005 
1715 1 0.00514102 0.000499989 0.0221489 0.0005 
1926 1 0.00418343 0.00481174 0.0207499 0.00075 
1662 1 0.00674037 0.00458137 0.021883 0.001 
1735 1 0.00603515 0.00162766 0.0214855 0.0005 
1762 1 0.0069841 0.0012209 0.0221903 0.00075 
2008 1 0.00188797 0.0034245 0.0220483 0.0005 
2110 1 0.00519928 0.00159454 0.0220333 0.0005 
2030 1 0.000499981 0.00214389 0.0222406 0.0005 
2181 1 0.00514795 0.00632042 0.0214772 0.0005 
1610 1 0.00736986 0.00327777 0.0214835 0.0005 
1881 1 0.00774354 0.00217812 0.0216835 0.0005 
1977 1 0.00399731 0.000499667 0.0223513 0.0005 
1700 1 0.00773472 0.00631545 0.0219446 0.001 
139 1 0.00733449 0.00635184 0.0204997 0.0005 
2188 1 0.00541681 0.00295411 0.021946 0.0005 
102 1 0.00483379 0.00693343 0.0205 0.0005 
2207 1 0.000499963 0.00472091 0.0213178 0.0005 
1956 1 0.00624461 0.00599664 0.0218402 0.0005 
1682 1 0.00295553 0.00674613 0.0217496 0.00175 
1812 1 0.000749911 0.00397738 0.022291 0.00075 
2060 1 0.000749947 0.00568005 0.0225013 0.00075 
2077 1 0.00654089 0.00236264 0.0219371 0.0005 
2330 1 0.00148314 0.00195755 0.0221259 0.0005 
42 1 0.00795668 0.00142638 0.0204999 0.0005 
2269 1 0.00264337 0.00436042 0.0224629 0.00075 
35 1 0.00049999 0.00701184 0.0219182 0.0005 
2292 1 0.00869132 0.00102829 0.021857 0.001 
44 1 0.00834006 0.0063427 0.0205 0.0005 
1633 1 0.0084043 0.00381592 0.0205 0.0005 
1806 1 0.00813676 0.00496886 0.020902 0.00075 
99 1 0.00944972 0.0052118 0.0213128 0.0005 
45 1 0.00909026 0.00566997 0.0204999 0.0005 
46 1 0.00919164 0.00443239 0.0204999 0.0005 
47 1 0.011576 0.00425241 0.0204999 0.0005 
48 1 0.0101214 0.00279742 0.0205 0.0005 
49 1 0.0138246 0.00234595 0.02075 0.00075 
50 1 0.0100954 0.00178136 0.0205 0.0005 
51 1 0.0103327 0.000500013 0.0205 0.0005 
52 1 0.0125868 0.00049998 0.0205 0.0005 
53 1 0.01096 0.00127899 0.0204999 0.0005 
54 1 0.00833273 0.000499892 0.0204999 0.0005 
55 1 0.0109837 0.00513422 0.0204999 0.0005 
56 1 0.0127719 0.00387824 0.0205 0.0005 
57 1 0.00849915 0.00252428 0.0207498 0.00075 
58 1 0.0110367 0.00624839 0.0205 0.0005 
59 1 0.0100865 0.00558104 0.0205 0.0005 
60 1 0.0126484 0.00561238 0.0214999 0.0015 
61 1 0.0104231 0.0010696 0.021609 0.00075 
62 1 0.00914149 0.00148153 0.0204999 0.0005 
63 1 0.00932591 0.00342784 0.0205 0.0005 
64 1 0.0143805 0.00558872 0.0205 0.0005 
66 1 0.0149371 0.00410874 0.0212499 0.00125 
67 1 0.00933274 0.000499997 0.0205 0.0005 
68 1 0.0116999 0.00267624 0.0212499 0.00125 
69 1 0.0137857 0.000749959 0.0207499 0.00075 
70 1 0.0103638 0.00407792 0.02075 0.00075 
71 1 0.0115868 0.000499923 0.0204999 0.0005 
72 1 0.01275 0.00148664 0.0205 0.0005 
75 1 0.0157699 0.00149994 0.0214999 0.0015 
2063 1 0.0125902 0.000499972 0.0214999 0.0005 
2015 1 0.0104485 0.00517463 0.0213437 0.0005 
143 1 0.0149115 0.00643617 0.0204999 0.0005 
1828 1 0.013364 0.0015414 0.0222526 0.001 
1644 1 0.0105639 0.00575788 0.0224432 0.00075 
1941 1 0.0116946 0.00093231 0.0213951 0.0005 
2441 1 0.0100123 0.00223437 0.0213875 0.0005 
1608 1 0.0159371 0.00576717 0.0207501 0.00075 
2355 1 0.0091139 0.0057901 0.022212 0.0005 
2090 1 0.0110463 0.00443818 0.0217333 0.0005 
2263 1 0.0113177 0.00703507 0.0219525 0.0005 
2046 1 0.0148321 0.0061138 0.0217048 0.00075 
2268 1 0.0117357 0.00404401 0.0223409 0.0005 
2039 1 0.011441 0.00121864 0.0223189 0.0005 
2130 1 0.0133333 0.00341074 0.0211828 0.0005 
2318 1 0.0159249 0.00326691 0.0224238 0.0005 
2598 1 0.0105857 0.0020059 0.022421 0.0005 
2848 1 0.0121649 0.000503999 0.0224049 0.0005 
1872 1 0.0142868 0.00271088 0.0220778 0.0005 
1623 1 0.0160074 0.00532249 0.0219162 0.0005 
74 1 0.0164247 0.00464389 0.0204998 0.0005 
76 1 0.0220901 0.000749878 0.02075 0.00075 
77 1 0.0235 0.00525296 0.0204999 0.0005 
78 1 0.0203893 0.0010769 0.0209999 0.001 
79 1 0.0232502 0.00170046 0.0207499 0.00075 
81 1 0.0206733 0.00278543 0.02075 0.00075 
82 1 0.0205067 0.00490395 0.0204999 0.0005 
83 1 0.0187374 0.00162526 0.0207499 0.00075 
84 1 0.0215648 0.0018988 0.0205 0.0005 
85 1 0.0171971 0.000506084 0.0205 0.0005 
86 1 0.0234985 0.000500541 0.0204998 0.0005 
87 1 0.0209068 0.00398758 0.0204999 0.0005 
88 1 0.0182529 0.000500009 0.0205 0.0005 
89 1 0.0215926 0.00220088 0.0217819 0.00075 
90 1 0.021112 0.00596854 0.0207499 0.00075 
91 1 0.0198977 0.00580931 0.0204999 0.0005 
92 1 0.0222997 0.00418909 0.0205 0.0005 
93 1 0.0218965 0.00284699 0.0205 0.0005 
95 1 0.0235001 0.00425316 0.0204998 0.0005 
97 1 0.0171586 0.00585451 0.0204998 0.0005 
182 1 0.0232501 0.00645175 0.0207498 0.00075 
1643 1 0.0210881 0.00448128 0.0213562 0.0005 
1663 1 0.0215003 0.00479233 0.0204999 0.0005 
1901 1 0.0202603 0.0062322 0.021626 0.0005 
1650 1 0.0224167 0.00518346 0.021621 0.001 
2044 1 0.0169334 0.00278329 0.0205 0.0005 
1612 1 0.0229519 0.00326142 0.0214822 0.001 
187 1 0.0220606 0.00674312 0.0204999 0.0005 
2221 1 0.0234998 0.000510379 0.0214994 0.0005 
1629 1 0.0185013 0.00421256 0.0222499 0.00225 
1979 1 0.0216026 0.00650629 0.021766 0.0005 
2364 1 0.0190215 0.000499885 0.0212138 0.0005 
2071 1 0.0178844 0.000749949 0.0216682 0.00075 
2447 1 0.02152 0.00359557 0.0211857 0.0005 
2462 1 0.0209501 0.00539835 0.0218504 0.0005 
2334 1 0.0191658 0.0012872 0.0222332 0.00075 
94 1 0.0184764 0.00661476 0.0205 0.0005 
96 1 0.0207671 0.00700418 0.0220096 0.0005 
80 1 0.0198697 0.00703367 0.0207499 0.00075 
2613 1 0.0203602 0.00220265 0.0219912 0.0005 
2682 1 0.0235 0.00618102 0.0219443 0.0005 
2222 1 0.0216967 0.000749935 0.0221981 0.00075 
2516 1 0.0226234 0.00149435 0.0218115 0.0005 
2332 1 0.0201631 0.000499999 0.0223659 0.0005 
2839 1 0.0235001 0.00195072 0.0219633 0.0005 
26 1 0.000749958 0.00737943 0.02075 0.00075 
100 1 0.00623333 0.00723907 0.0209999 0.001 
101 1 0.00136328 0.00843941 0.0204999 0.0005 
103 1 0.00183253 0.0100722 0.0205 0.0005 
104 1 0.00245618 0.00899201 0.0207499 0.00075 
105 1 0.00711876 0.0118093 0.0205 0.0005 
106 1 0.00358422 0.00850968 0.0205 0.0005 
107 1 0.00271834 0.0115643 0.0205 0.0005 
108 1 0.00459208 0.0104782 0.02075 0.00075 
109 1 0.000500001 0.0106985 0.0205 0.0005 
110 1 0.00515698 0.00931856 0.0205 0.0005 
111 1 0.00176273 0.0110697 0.0204999 0.0005 
112 1 0.00391669 0.0118175 0.0207499 0.00075 
113 1 0.00596086 0.00999683 0.0211753 0.00075 
114 1 0.00513093 0.0116675 0.0210057 0.0005 
116 1 0.00294639 0.0130541 0.0205 0.0005 
118 1 0.000499998 0.0126982 0.0205 0.0005 
119 1 0.00388456 0.0134002 0.0205 0.0005 
122 1 0.00608305 0.0119353 0.0205 0.0005 
124 1 0.00569399 0.0110141 0.0204999 0.0005 
125 1 0.00492941 0.0125063 0.0205 0.0005 
126 1 0.00375063 0.0128991 0.0213549 0.0005 
128 1 0.00715367 0.0131455 0.0205 0.0005 
129 1 0.00600049 0.0129319 0.0204999 0.0005 
130 1 0.0017347 0.0122941 0.0207499 0.00075 
131 1 0.000516162 0.0116984 0.0205 0.0005 
132 1 0.0058871 0.00863527 0.0204999 0.0005 
133 1 0.00415713 0.00933333 0.0204999 0.0005 
134 1 0.000749932 0.00949941 0.0207499 0.00075 
136 1 0.00166441 0.00945189 0.0216007 0.0005 
137 1 0.00289205 0.0123596 0.0212175 0.0005 
138 1 0.000499991 0.00843942 0.0213634 0.0005 
140 1 0.000499994 0.0133087 0.0212919 0.0005 
141 1 0.00788701 0.00775415 0.02075 0.00075 
1822 1 0.00307425 0.0103924 0.0207499 0.00075 
154 1 0.00726945 0.0105939 0.0207499 0.00075 
1865 1 0.000499978 0.0112314 0.0213841 0.0005 
1780 1 0.00475816 0.00816061 0.02075 0.00075 
222 1 0.00642694 0.0138364 0.0205 0.0005 
1934 1 0.0033216 0.0117089 0.0218437 0.0005 
120 1 0.00506592 0.0137233 0.0207499 0.00075 
1893 1 0.00366077 0.00914159 0.0216309 0.00075 
1655 1 0.00691595 0.00884028 0.0211794 0.00075 
1805 1 0.00219548 0.0111967 0.0216655 0.00075 
1890 1 0.00122431 0.0105728 0.0211803 0.0005 
1970 1 0.00511658 0.0105973 0.0218783 0.0005 
2119 1 0.00153126 0.00846765 0.0214851 0.0005 
1739 1 0.000999878 0.0122833 0.0223379 0.001 
2433 1 0.00289054 0.0131886 0.0217768 0.0005 
123 1 0.000499968 0.0139192 0.0205 0.0005 
2342 1 0.00248464 0.0123315 0.0221303 0.0005 
2047 1 0.0038092 0.0105757 0.0220445 0.00075 
1888 1 0.00760799 0.00984697 0.0220497 0.00075 
2665 1 0.00249013 0.00998725 0.0217779 0.0005 
121 1 0.00191076 0.0140171 0.0209999 0.001 
2524 1 0.000753464 0.0140138 0.0219542 0.0005 
65 1 0.0141921 0.00713048 0.0205 0.0005 
163 1 0.00834112 0.0117324 0.0207498 0.00075 
183 1 0.0153127 0.00735559 0.0205 0.0005 
148 1 0.00837378 0.013252 0.02075 0.00075 
142 1 0.0139528 0.00810129 0.0204997 0.0005 
144 1 0.00987854 0.0104128 0.0205 0.0005 
145 1 0.0126727 0.0081038 0.0205 0.0005 
147 1 0.0131999 0.00725419 0.0204999 0.0005 
149 1 0.00971724 0.00712141 0.0212499 0.00125 
150 1 0.0116227 0.00746946 0.02075 0.00075 
151 1 0.0117968 0.00895976 0.0207499 0.00075 
152 1 0.0106521 0.00845875 0.0205 0.0005 
153 1 0.0110972 0.0102866 0.0207498 0.00075 
155 1 0.0115661 0.0117113 0.02075 0.00075 
156 1 0.00950106 0.0113388 0.0205 0.0005 
158 1 0.00869345 0.0105596 0.0204999 0.0005 
159 1 0.0132371 0.00892927 0.0204998 0.0005 
160 1 0.0103477 0.0118711 0.0204999 0.0005 
164 1 0.00960789 0.0133201 0.0205 0.0005 
165 1 0.00942919 0.0123363 0.0205 0.0005 
166 1 0.0108083 0.0130058 0.0207505 0.00075 
167 1 0.00911522 0.00858325 0.0204999 0.0005 
168 1 0.0123087 0.0130145 0.0207499 0.00075 
169 1 0.0122723 0.0107107 0.0205 0.0005 
170 1 0.0138129 0.0106611 0.0209999 0.001 
171 1 0.00822774 0.00942704 0.0207499 0.00075 
172 1 0.0116911 0.0108802 0.0219927 0.00075 
173 1 0.0127885 0.011636 0.0205 0.0005 
174 1 0.0133964 0.0124301 0.0205 0.0005 
175 1 0.00930487 0.0107113 0.0212763 0.0005 
176 1 0.00893323 0.0124796 0.021558 0.0005 
177 1 0.00831671 0.0106818 0.0214266 0.0005 
179 1 0.0127083 0.00977797 0.0205 0.0005 
180 1 0.0127356 0.0119441 0.0217102 0.00075 
184 1 0.0149346 0.00969668 0.0212478 0.0005 
1640 1 0.0111933 0.00827942 0.0219427 0.00075 
1732 1 0.00986037 0.00934616 0.0215545 0.001 
181 1 0.0141688 0.00929237 0.0205 0.0005 
191 1 0.0151596 0.00857241 0.02075 0.00075 
1614 1 0.0101581 0.0117241 0.0219804 0.001 
192 1 0.0155441 0.0110868 0.0205 0.0005 
1815 1 0.0153263 0.0106109 0.021352 0.0005 
325 1 0.0133712 0.0136236 0.0204999 0.0005 
1676 1 0.0128901 0.0105804 0.0221797 0.0005 
1592 1 0.0152933 0.0130711 0.0219998 0.002 
2095 1 0.0122508 0.00994364 0.0213736 0.0005 
1831 1 0.0086267 0.00847467 0.0214543 0.0005 
1916 1 0.0156261 0.00917098 0.0217432 0.0005 
1929 1 0.0147524 0.0103317 0.0221219 0.0005 
1775 1 0.0115556 0.013562 0.0215839 0.0005 
2223 1 0.0127989 0.013192 0.0218859 0.0005 
2037 1 0.0113327 0.00956291 0.0217414 0.0005 
1920 1 0.00971649 0.0139268 0.0221528 0.00125 
1793 1 0.0135827 0.0112816 0.0223484 0.0005 
162 1 0.0102631 0.0141022 0.0204998 0.0005 
260 1 0.0130623 0.0140072 0.0213701 0.0005 
2298 1 0.0108049 0.0101149 0.0224302 0.0005 
2204 1 0.00897331 0.0105372 0.0224803 0.00075 
201 1 0.0160781 0.00978058 0.02075 0.00075 
1740 1 0.0162869 0.010884 0.0212988 0.0005 
178 1 0.0171074 0.0122293 0.0204999 0.0005 
185 1 0.0235 0.00765065 0.0204999 0.0005 
186 1 0.0170355 0.00758199 0.0214998 0.0015 
188 1 0.022646 0.00717826 0.0219145 0.00075 
189 1 0.0235 0.00965047 0.0205 0.0005 
190 1 0.0213351 0.00795697 0.021 0.001 
193 1 0.0181064 0.0129377 0.0207499 0.00075 
194 1 0.018768 0.0075713 0.0205 0.0005 
196 1 0.0201571 0.00878591 0.0214185 0.0005 
197 1 0.0188032 0.0092776 0.0209999 0.001 
198 1 0.0164737 0.0114558 0.0205 0.0005 
199 1 0.017389 0.00927746 0.0204999 0.0005 
200 1 0.0230001 0.0108496 0.0212496 0.001 
202 1 0.0204471 0.00906007 0.0205 0.0005 
203 1 0.0173939 0.010502 0.0207499 0.00075 
204 1 0.0178985 0.0116179 0.0204999 0.0005 
205 1 0.0202948 0.0129256 0.0204999 0.0005 
206 1 0.0213304 0.0110051 0.0207499 0.00075 
207 1 0.0235 0.0120486 0.0204999 0.0005 
208 1 0.0235 0.00865055 0.0205 0.0005 
209 1 0.0198334 0.00825984 0.0205 0.0005 
210 1 0.0221655 0.0123042 0.02075 0.00075 
211 1 0.0199741 0.0100703 0.0204998 0.0005 
212 1 0.0225068 0.0137648 0.0207499 0.00075 
213 1 0.0209483 0.0121687 0.0205 0.0005 
214 1 0.0235001 0.0130485 0.0205 0.0005 
215 1 0.0213933 0.0132548 0.0205 0.0005 
216 1 0.0218809 0.00960065 0.0207499 0.00075 
217 1 0.0171948 0.0116146 0.0212837 0.0005 
218 1 0.0211992 0.0123605 0.0218959 0.00075 
219 1 0.0234086 0.0132743 0.0214706 0.0005 
221 1 0.0235001 0.0122785 0.021473 0.0005 
324 1 0.0193137 0.0131439 0.0204999 0.0005 
1626 1 0.0194787 0.0115715 0.02125 0.00125 
1691 1 0.0230691 0.00913068 0.0215706 0.00075 
1684 1 0.0217503 0.0103755 0.0219301 0.0005 
1915 1 0.0235001 0.00796365 0.0214496 0.0005 
220 1 0.0202454 0.013128 0.021478 0.0005 
2005 1 0.0206497 0.00992814 0.0215415 0.00075 
1851 1 0.0193588 0.00734997 0.0223934 0.001 
1835 1 0.0179028 0.0121722 0.0217168 0.0005 
2211 1 0.0184134 0.0134595 0.0218435 0.0005 
1968 1 0.0192678 0.0136507 0.0213606 0.0005 
328 1 0.0190692 0.0141318 0.0205 0.0005 
2149 1 0.0195253 0.0100304 0.0220778 0.0005 
326 1 0.0206089 0.013875 0.0205 0.0005 
330 1 0.0171534 0.0138362 0.0205 0.0005 
329 1 0.0176518 0.0139155 0.021382 0.0005 
2289 1 0.0210043 0.0110825 0.0219541 0.0005 
2213 1 0.0226173 0.0121881 0.0223533 0.00075 
1960 1 0.0194987 0.0131475 0.0224812 0.00075 
2507 1 0.0230406 0.0136185 0.0223345 0.0005 
2452 1 0.0218726 0.0111938 0.0224916 0.0005 
2197 1 0.0202487 0.0106211 0.0225015 0.0005 
117 1 0.00364019 0.0143699 0.0205 0.0005 
223 1 0.00454286 0.0148317 0.0205 0.0005 
224 1 0.00289429 0.0150361 0.0205 0.0005 
225 1 0.00225633 0.0160907 0.0205 0.0005 
226 1 0.00607278 0.0153774 0.0212499 0.00125 
227 1 0.00154865 0.0153842 0.0205 0.0005 
228 1 0.000525484 0.0149189 0.0205 0.0005 
229 1 0.000499996 0.0159186 0.0205 0.0005 
230 1 0.00451768 0.0171371 0.0204999 0.0005 
231 1 0.00283058 0.0172776 0.0204999 0.0005 
232 1 0.00124989 0.0173108 0.0212499 0.00125 
233 1 0.00652502 0.016964 0.0205 0.0005 
234 1 0.00532177 0.0180608 0.02075 0.00075 
235 1 0.000500252 0.0187351 0.0205 0.0005 
236 1 0.00347333 0.0162351 0.0207499 0.00075 
237 1 0.00549239 0.0168481 0.0204999 0.0005 
238 1 0.00433201 0.0155373 0.0213314 0.0005 
239 1 0.00469519 0.0161531 0.0204999 0.0005 
240 1 0.00253434 0.0182326 0.0204999 0.0005 
241 1 0.000935115 0.0154764 0.0212842 0.0005 
242 1 0.000499847 0.0197417 0.0216071 0.0005 
243 1 0.0034067 0.0187213 0.0204999 0.0005 
244 1 0.00436697 0.019 0.0204999 0.0005 
245 1 0.00598047 0.0171574 0.0213161 0.0005 
246 1 0.00323701 0.0197067 0.0204999 0.0005 
247 1 0.00184342 0.0194666 0.0209999 0.001 
248 1 0.00468601 0.019154 0.0214349 0.0005 
249 1 0.00711605 0.0199592 0.0204999 0.0005 
250 1 0.00375516 0.017784 0.0205 0.0005 
256 1 0.00723136 0.0183823 0.0212499 0.00125 
255 1 0.00746509 0.0164209 0.0222359 0.00075 
392 1 0.00566505 0.0195209 0.0207499 0.00075 
443 1 0.00434382 0.0202309 0.02075 0.00075 
1846 1 0.00345547 0.0192328 0.0216393 0.00075 
393 1 0.00301779 0.0207073 0.0205 0.0005 
1615 1 0.00492534 0.0166976 0.0213096 0.0005 
259 1 0.00765557 0.0164929 0.0207499 0.00075 
395 1 0.000504914 0.0200062 0.0205 0.0005 
1616 1 0.00394485 0.0142453 0.021988 0.001 
1802 1 0.00529989 0.0204256 0.0215313 0.0005 
411 1 0.000499958 0.0210129 0.0204999 0.0005 
390 1 0.00657252 0.0204328 0.0215209 0.00075 
444 1 0.00351442 0.0204785 0.021724 0.0005 
1636 1 0.00235213 0.0207098 0.0221215 0.00075 
432 1 0.00591059 0.0207207 0.0204999 0.0005 
261 1 0.00764999 0.0152678 0.0204999 0.0005 
1804 1 0.00316687 0.0177605 0.0216026 0.00075 
2055 1 0.00438247 0.0175525 0.0213993 0.0005 
1908 1 0.00397379 0.0166045 0.0221148 0.00075 
391 1 0.00710839 0.0209591 0.0205 0.0005 
1784 1 0.00552443 0.0167806 0.0221403 0.0005 
146 1 0.00729493 0.0143329 0.0205 0.0005 
2106 1 0.00049999 0.0149778 0.022034 0.0005 
2329 1 0.000914652 0.0206023 0.0213119 0.0005 
1766 1 0.00745269 0.0149734 0.0222474 0.0005 
2215 1 0.00226254 0.0184919 0.0220602 0.0005 
2087 1 0.00568576 0.0179372 0.0219394 0.0005 
1971 1 0.00248836 0.0156142 0.0220561 0.001 
302 1 0.00781486 0.0154792 0.0214639 0.0005 
2561 1 0.00444369 0.0183851 0.0220265 0.0005 
2113 1 0.00645031 0.0171505 0.0222169 0.0005 
1697 1 0.00778299 0.0144568 0.0213648 0.0005 
1847 1 0.00248536 0.0171934 0.0224837 0.0005 
396 1 0.00186469 0.0211986 0.0207499 0.00075 
2523 1 0.00485089 0.0175061 0.0222815 0.0005 
414 1 0.000499991 0.0208214 0.022195 0.0005 
394 1 0.00503676 0.0212409 0.0205 0.0005 
252 1 0.0120836 0.0142184 0.0205 0.0005 
161 1 0.00926621 0.0142843 0.0205 0.0005 
1855 1 0.0111715 0.0141926 0.0209091 0.0005 
254 1 0.0129542 0.0147105 0.0205 0.0005 
257 1 0.0121426 0.0148241 0.0215918 0.00075 
258 1 0.0115137 0.0150401 0.0205 0.0005 
262 1 0.013941 0.0145486 0.0205 0.0005 
263 1 0.0123703 0.0155561 0.0205 0.0005 
264 1 0.0101654 0.0184495 0.0205 0.0005 
265 1 0.00940813 0.0191025 0.0204999 0.0005 
267 1 0.0138339 0.0161546 0.0212499 0.00125 
268 1 0.0114486 0.0181538 0.0205 0.0005 
269 1 0.00994665 0.0150507 0.0205 0.0005 
270 1 0.0122779 0.0192132 0.0207499 0.00075 
271 1 0.0123068 0.0165635 0.0204999 0.0005 
272 1 0.0153219 0.0190232 0.0205 0.0005 
273 1 0.0104647 0.0159059 0.0204999 0.0005 
274 1 0.010976 0.0190349 0.0205 0.0005 
275 1 0.0102107 0.019699 0.0204999 0.0005 
276 1 0.013468 0.0205425 0.0211479 0.0005 
277 1 0.0113185 0.0199744 0.0204999 0.0005 
278 1 0.0122954 0.020713 0.0207499 0.00075 
280 1 0.0115008 0.0171552 0.0204998 0.0005 
281 1 0.0125998 0.0177483 0.0207699 0.00075 
282 1 0.0133598 0.019787 0.0205 0.0005 
283 1 0.0138202 0.0177399 0.0204999 0.0005 
284 1 0.0134303 0.0186791 0.0205 0.0005 
285 1 0.0142499 0.0193313 0.0205 0.0005 
286 1 0.0145606 0.0183937 0.0206556 0.0005 
287 1 0.0132631 0.0189938 0.0218606 0.00075 
288 1 0.0120891 0.0160444 0.0213264 0.0005 
289 1 0.015282 0.0200224 0.0205 0.0005 
290 1 0.0147704 0.0174285 0.0204999 0.0005 
291 1 0.00915617 0.0181349 0.0204999 0.0005 
292 1 0.0104101 0.0174466 0.0204999 0.0005 
293 1 0.0148552 0.0204343 0.021305 0.0005 
294 1 0.0141994 0.0203299 0.0205 0.0005 
295 1 0.00847357 0.0174043 0.0204999 0.0005 
296 1 0.0157678 0.0174991 0.0204998 0.0005 
297 1 0.00883702 0.0155688 0.02075 0.00075 
298 1 0.0110436 0.0176308 0.0212512 0.0005 
300 1 0.010792 0.0166888 0.0210289 0.0005 
301 1 0.0114558 0.0160384 0.0205 0.0005 
303 1 0.0124883 0.0199663 0.0217336 0.0005 
304 1 0.00982253 0.0164346 0.021055 0.0005 
305 1 0.013694 0.0178835 0.0214814 0.0005 
306 1 0.0149579 0.0150426 0.0204999 0.0005 
307 1 0.00989159 0.0155054 0.021418 0.0005 
308 1 0.0117873 0.0169905 0.0214436 0.0005 
309 1 0.0124681 0.0209383 0.0219672 0.0005 
310 1 0.011823 0.0162167 0.0222748 0.0005 
311 1 0.00944725 0.0171768 0.0205 0.0005 
312 1 0.00980477 0.0178302 0.0211973 0.0005 
314 1 0.0111289 0.0159242 0.0215784 0.0005 
315 1 0.010281 0.0190922 0.0218697 0.001 
316 1 0.0153542 0.0165887 0.0204999 0.0005 
319 1 0.0107472 0.0150678 0.0211415 0.0005 
320 1 0.0157396 0.0156661 0.0205 0.0005 
321 1 0.00895065 0.0187051 0.0212953 0.0005 
322 1 0.0140909 0.0197931 0.0213725 0.0005 
323 1 0.00878719 0.0167224 0.0212287 0.0005 
331 1 0.0159214 0.0163709 0.0212942 0.0005 
1603 1 0.0082847 0.0144756 0.0205 0.0005 
1637 1 0.00883637 0.0177041 0.0214124 0.0005 
1721 1 0.0154468 0.0155032 0.0214421 0.0005 
461 1 0.00861267 0.0204689 0.0212499 0.00125 
318 1 0.0115727 0.0184555 0.0214504 0.0005 
313 1 0.0113493 0.0202894 0.0214485 0.0005 
279 1 0.0149193 0.0210239 0.0204999 0.0005 
2191 1 0.013372 0.0146696 0.0220521 0.0005 
465 1 0.0105032 0.0208882 0.02075 0.00075 
1997 1 0.0134432 0.0174391 0.0223723 0.0005 
458 1 0.0102158 0.0206172 0.0219359 0.0005 
2002 1 0.00907234 0.0182689 0.0222032 0.0005 
1886 1 0.011035 0.0202774 0.0223977 0.0005 
2180 1 0.012032 0.0191277 0.0220309 0.0005 
2218 1 0.015039 0.0206416 0.0222658 0.0005 
2526 1 0.011032 0.0150799 0.0221053 0.0005 
2353 1 0.0122515 0.0178029 0.0222724 0.00075 
2041 1 0.00877402 0.0156884 0.0222438 0.00075 
459 1 0.0137935 0.0212438 0.0205 0.0005 
332 1 0.0235 0.0142701 0.0214774 0.0005 
317 1 0.016222 0.019473 0.0205 0.0005 
2457 1 0.0173906 0.0144156 0.0222075 0.0005 
1729 1 0.0218079 0.016374 0.0218842 0.0005 
327 1 0.0235001 0.0144811 0.0204999 0.0005 
333 1 0.0180734 0.014228 0.0205 0.0005 
334 1 0.0216587 0.014649 0.0205 0.0005 
336 1 0.0226109 0.014989 0.0205 0.0005 
337 1 0.0170923 0.0152536 0.0209999 0.001 
338 1 0.0184984 0.0154034 0.0204999 0.0005 
339 1 0.019442 0.0150724 0.0204999 0.0005 
340 1 0.0186957 0.0172344 0.0212602 0.0005 
341 1 0.0180618 0.016303 0.0205 0.0005 
342 1 0.0175328 0.018164 0.0205 0.0005 
343 1 0.0223013 0.0161941 0.0207499 0.00075 
344 1 0.0180505 0.0173079 0.0204999 0.0005 
345 1 0.0193402 0.0162928 0.0207499 0.00075 
346 1 0.0235001 0.0174809 0.0204999 0.0005 
347 1 0.0223131 0.017782 0.0207499 0.00075 
348 1 0.0211929 0.015673 0.0205 0.0005 
349 1 0.0202768 0.0174263 0.0204999 0.0005 
350 1 0.0185353 0.0181824 0.0205 0.0005 
351 1 0.0192809 0.0175161 0.0204999 0.0005 
352 1 0.0235 0.0184809 0.0204998 0.0005 
353 1 0.0200941 0.0176573 0.0217147 0.00075 
354 1 0.0168729 0.0169717 0.02075 0.00075 
355 1 0.0209439 0.0184535 0.0207499 0.00075 
356 1 0.0212462 0.0171809 0.0204999 0.0005 
357 1 0.0197198 0.0184145 0.0204999 0.0005 
358 1 0.0234984 0.0154811 0.0205 0.0005 
359 1 0.0205907 0.0148747 0.0205 0.0005 
360 1 0.0190591 0.0182556 0.0213489 0.0005 
361 1 0.0203387 0.0198549 0.02075 0.00075 
362 1 0.0189226 0.0193442 0.0207499 0.00075 
363 1 0.0235 0.016481 0.0204999 0.0005 
364 1 0.0225 0.019895 0.0214998 0.0015 
366 1 0.0205535 0.0164599 0.0204999 0.0005 
367 1 0.0232499 0.0169527 0.0216301 0.00075 
368 1 0.0179184 0.0187568 0.021207 0.0005 
369 1 0.0235 0.0181637 0.0214477 0.0005 
370 1 0.0199358 0.0188495 0.0213739 0.0005 
371 1 0.0177019 0.0176816 0.0213594 0.0005 
373 1 0.0180448 0.0202083 0.0212116 0.0005 
374 1 0.0174806 0.0197896 0.0205 0.0005 
376 1 0.0165329 0.0181482 0.0204999 0.0005 
377 1 0.0231842 0.0154565 0.0217123 0.00075 
378 1 0.0206863 0.0207353 0.0215664 0.0005 
379 1 0.0170198 0.0189613 0.0208188 0.0005 
380 1 0.0210285 0.0166968 0.0213474 0.0005 
381 1 0.0207871 0.0189396 0.0218908 0.0005 
382 1 0.023475 0.0182195 0.0224453 0.0005 
383 1 0.0203696 0.0156626 0.0210746 0.0005 
385 1 0.0178871 0.0166668 0.0214149 0.0005 
386 1 0.0198971 0.0143485 0.0210184 0.0005 
388 1 0.0201398 0.0164082 0.0217037 0.0005 
1830 1 0.0215367 0.0179306 0.0220246 0.00075 
1972 1 0.0188612 0.0149916 0.0218958 0.001 
526 1 0.0190189 0.0208411 0.02075 0.00075 
375 1 0.0165003 0.0210303 0.0212499 0.00125 
1906 1 0.0170776 0.0164173 0.0219463 0.0005 
2136 1 0.0235 0.014499 0.0224512 0.0005 
527 1 0.0210434 0.0208566 0.0205 0.0005 
2036 1 0.0161829 0.0156346 0.0224455 0.00075 
1866 1 0.0212683 0.014537 0.022462 0.0015 
397 1 0.00502855 0.0250727 0.0205 0.0005 
398 1 0.00586098 0.0241125 0.0207498 0.00075 
399 1 0.00460188 0.0225972 0.0209999 0.001 
400 1 0.000749974 0.0222118 0.0207499 0.00075 
401 1 0.00115368 0.0253624 0.0213199 0.0005 
402 1 0.000502366 0.0244107 0.0205 0.0005 
403 1 0.000500015 0.0254107 0.0205 0.0005 
404 1 0.00770364 0.0217626 0.0205 0.0005 
405 1 0.00258934 0.0247551 0.0205 0.0005 
406 1 0.00522853 0.0260772 0.0205 0.0005 
407 1 0.00335432 0.0237986 0.0207499 0.00075 
408 1 0.000499962 0.0234107 0.0205 0.0005 
409 1 0.00666521 0.0253785 0.02075 0.00075 
410 1 0.00357816 0.0216213 0.0204999 0.0005 
412 1 0.0016992 0.023788 0.0213181 0.001 
413 1 0.00630218 0.021881 0.02075 0.00075 
415 1 0.00658995 0.0266008 0.0204999 0.0005 
416 1 0.00231728 0.0258056 0.0212109 0.00075 
417 1 0.00755406 0.0263348 0.0205 0.0005 
418 1 0.00427079 0.0257865 0.0205 0.0005 
419 1 0.000499937 0.0246509 0.0215772 0.0005 
420 1 0.00675472 0.027587 0.0204999 0.0005 
421 1 0.00464041 0.0240109 0.0205 0.0005 
422 1 0.000499953 0.0229755 0.0217073 0.0005 
423 1 0.000499904 0.0261185 0.021347 0.0005 
424 1 0.0016282 0.025043 0.0204998 0.0005 
426 1 0.00268295 0.022457 0.0207499 0.00075 
427 1 0.00694325 0.0262865 0.0219111 0.00075 
428 1 0.00130768 0.0260003 0.0205 0.0005 
429 1 0.00404196 0.0248121 0.0204999 0.0005 
430 1 0.00329016 0.0254715 0.0205 0.0005 
431 1 0.0059279 0.0262907 0.0211821 0.0005 
433 1 0.00159201 0.026959 0.0205 0.0005 
434 1 0.00356213 0.0269701 0.0213609 0.0005 
435 1 0.00351478 0.026446 0.0205 0.0005 
436 1 0.00614006 0.0230085 0.0217259 0.00075 
437 1 0.000499988 0.0270591 0.0216863 0.0005 
438 1 0.000499987 0.0266496 0.0204999 0.0005 
439 1 0.00134788 0.0262855 0.02225 0.00075 
440 1 0.00451977 0.0266892 0.020851 0.0005 
442 1 0.00659956 0.0274046 0.0214706 0.0005 
445 1 0.00554453 0.0273991 0.0207499 0.00075 
446 1 0.00652711 0.0230849 0.0204999 0.0005 
447 1 0.000499876 0.0278044 0.0223807 0.0005 
450 1 0.0033531 0.0274337 0.0204999 0.0005 
453 1 0.00708624 0.024048 0.0205 0.0005 
454 1 0.00433775 0.0276076 0.0204999 0.0005 
455 1 0.00747767 0.02716 0.0210595 0.0005 
456 1 0.00299128 0.0213607 0.0212666 0.0005 
594 1 0.00257918 0.0267995 0.0204997 0.0005 
629 1 0.00269104 0.0267839 0.0218934 0.0005 
1594 1 0.00767229 0.0242255 0.0221393 0.00125 
522 1 0.00746312 0.0227332 0.0204999 0.0005 
463 1 0.00776066 0.0248311 0.0204999 0.0005 
1824 1 0.00539774 0.0214194 0.0214789 0.0005 
615 1 0.00264634 0.0275064 0.0212034 0.0005 
1857 1 0.00111872 0.0214977 0.0217072 0.0005 
1939 1 0.00575201 0.0272264 0.0219704 0.0005 
1917 1 0.0039879 0.0212723 0.0213425 0.0005 
605 1 0.00446901 0.0277506 0.0217346 0.00075 
606 1 0.00167296 0.0277205 0.0219576 0.00075 
579 1 0.00768108 0.0279633 0.0204999 0.0005 
2076 1 0.00175848 0.0250864 0.0220669 0.0005 
2088 1 0.00172132 0.0222961 0.021532 0.0005 
2129 1 0.00279798 0.0220784 0.0219357 0.0005 
589 1 0.00198579 0.0279594 0.0205 0.0005 
1819 1 0.00549636 0.0281178 0.0223446 0.0005 
451 1 0.00075011 0.0278485 0.0207499 0.00075 
1765 1 0.00309279 0.0281524 0.0221757 0.00075 
2604 1 0.00368165 0.0224785 0.0221785 0.0005 
2530 1 0.0030418 0.0231196 0.0217518 0.0005 
513 1 0.00789549 0.0256385 0.0211313 0.0005 
2112 1 0.000501486 0.025366 0.0222763 0.0005 
448 1 0.00821539 0.0239405 0.0205 0.0005 
457 1 0.0148662 0.0214548 0.0217101 0.0005 
460 1 0.0140292 0.0227634 0.0217264 0.0005 
462 1 0.00986351 0.0216698 0.0214864 0.0005 
464 1 0.00831268 0.0271881 0.0205 0.0005 
466 1 0.00887653 0.0226893 0.021 0.001 
467 1 0.00895592 0.0250978 0.0207499 0.00075 
468 1 0.0104082 0.0235944 0.0216211 0.00075 
469 1 0.00949494 0.026679 0.0205 0.0005 
470 1 0.00945538 0.0239795 0.0204999 0.0005 
471 1 0.012822 0.0242307 0.0205 0.0005 
473 1 0.0130292 0.025213 0.0205 0.0005 
474 1 0.0139356 0.0239877 0.0204999 0.0005 
475 1 0.0116864 0.0229149 0.0205 0.0005 
476 1 0.0127544 0.0218484 0.0204999 0.0005 
477 1 0.0111069 0.0245146 0.0211442 0.0005 
478 1 0.0109765 0.0236561 0.0205 0.0005 
479 1 0.0133701 0.0217116 0.021579 0.00075 
480 1 0.0112025 0.0263603 0.0205 0.0005 
481 1 0.0122727 0.0248956 0.0214433 0.00075 
482 1 0.014034 0.025 0.0212264 0.00075 
483 1 0.0118495 0.0255978 0.0204999 0.0005 
484 1 0.0118115 0.0242175 0.0204999 0.0005 
485 1 0.0122124 0.0235217 0.0210958 0.0005 
486 1 0.015048 0.0251659 0.0204999 0.0005 
487 1 0.0105817 0.022386 0.0207498 0.00075 
488 1 0.015232 0.0232251 0.0205 0.0005 
489 1 0.0103464 0.0244333 0.0205 0.0005 
490 1 0.0132729 0.0229578 0.0207499 0.00075 
491 1 0.0142565 0.0259925 0.0204998 0.0005 
492 1 0.0109081 0.0252606 0.0205 0.0005 
493 1 0.0104396 0.0270068 0.0205 0.0005 
494 1 0.0143291 0.0260044 0.0219095 0.0005 
495 1 0.0128902 0.026788 0.0212499 0.00125 
496 1 0.014918 0.0241744 0.0204999 0.0005 
497 1 0.0149454 0.0267206 0.0204999 0.0005 
498 1 0.0149942 0.0259069 0.0211692 0.0005 
499 1 0.014629 0.0268356 0.0214415 0.0005 
501 1 0.0145651 0.0221962 0.0207499 0.00075 
502 1 0.0144768 0.0234245 0.0211243 0.0005 
503 1 0.0157421 0.0247569 0.0210923 0.0005 
504 1 0.0122335 0.0223946 0.0211558 0.0005 
505 1 0.0102611 0.026023 0.0204998 0.0005 
506 1 0.015496 0.0272918 0.0212373 0.0005 
507 1 0.0112655 0.0276747 0.021431 0.0005 
508 1 0.0131479 0.0240034 0.0214233 0.0005 
509 1 0.0114433 0.0229054 0.0214945 0.0005 
510 1 0.0086318 0.0263019 0.0208357 0.0005 
511 1 0.0154017 0.0264221 0.021923 0.0005 
512 1 0.00931274 0.0241895 0.0215311 0.0005 
514 1 0.0117541 0.0218116 0.0204999 0.0005 
516 1 0.0154823 0.0228538 0.0220873 0.001 
517 1 0.0114082 0.0273388 0.0205 0.0005 
518 1 0.00920635 0.0276368 0.0205 0.0005 
519 1 0.0145002 0.0278689 0.02075 0.00075 
520 1 0.0149418 0.0275946 0.0220125 0.0005 