ITEM: TIMESTEP
450000
ITEM: NUMBER OF ATOMS
3343
ITEM: BOX BOUNDS mm mm mm
-2.4e-06 0.0240024
-7.8e-06 0.0780078
-3e-06 0.030003
ITEM: ATOMS id type x y z radius 
291 1 0.00328249 0.0024018 0.0214998 0.0015 
368 1 0.00049994 0.00174606 0.0205 0.0005 
784 1 0.00578883 0.00437988 0.0207497 0.00075 
32 1 0.00558701 0.000499956 0.0204999 0.0005 
241 1 0.00468259 0.00342152 0.0204999 0.0005 
815 1 0.0026582 0.000501196 0.0205 0.0005 
448 1 0.00389631 0.00404776 0.0205 0.0005 
300 1 0.000514447 0.000499994 0.0205 0.0005 
442 1 0.000999564 0.00328797 0.0209998 0.001 
816 1 0.00634332 0.00548654 0.0205 0.0005 
710 1 0.00431548 0.000515307 0.0205 0.0005 
527 1 0.000499893 0.00561036 0.0204999 0.0005 
100 1 0.00492542 0.00376121 0.0214084 0.0005 
153 1 0.00490076 0.00174897 0.0205 0.0005 
722 1 0.00179222 0.00605593 0.0205 0.0005 
864 1 0.00612222 0.00134789 0.0205 0.0005 
503 1 0.000499886 0.00461065 0.0204999 0.0005 
561 1 0.00572983 0.00278651 0.02075 0.00075 
501 1 0.00644432 0.000516395 0.0210142 0.0005 
954 1 0.00730136 0.00049985 0.0204996 0.0005 
587 1 0.000499999 0.000748102 0.0214686 0.0005 
370 1 0.00710985 0.00209729 0.0207492 0.00075 
28 1 0.00156988 0.00115012 0.0207499 0.00075 
220 1 0.00788143 0.00074971 0.0215777 0.00075 
2736 1 0.0020763 0.0042078 0.0205 0.0005 
998 1 0.000811069 0.00679469 0.0207496 0.00075 
842 1 0.00662955 0.00658053 0.0222954 0.0005 
2924 1 0.00158354 0.00507796 0.0205 0.0005 
390 1 0.00216413 0.00416972 0.0214954 0.0005 
151 1 0.0015771 0.000749973 0.0221954 0.00075 
486 1 0.00391077 0.00617477 0.0222497 0.00225 
2921 1 0.000501017 0.00174828 0.0215025 0.0005 
1816 1 0.000499985 0.00598402 0.0216486 0.0005 
2929 1 0.00113438 0.00490693 0.0216538 0.00075 
463 1 0.00579296 0.00388232 0.0218964 0.0005 
1429 1 0.00122164 0.00664456 0.0219203 0.0005 
175 1 0.00502913 0.000703908 0.0213043 0.0005 
399 1 0.00168535 0.00404133 0.0223677 0.0005 
997 1 0.00474016 0.00348531 0.0223514 0.0005 
3005 1 0.00391624 0.000505136 0.0214575 0.0005 
307 1 0.00818877 0.00267656 0.0204998 0.0005 
870 1 0.00817538 0.00698667 0.0205 0.0005 
324 1 0.00821927 0.00467476 0.0220016 0.002 
1195 1 0.00827531 0.00165517 0.0206579 0.0005 
121 1 0.00910135 0.00660242 0.0205 0.0005 
228 1 0.00983803 0.00592587 0.0205 0.0005 
490 1 0.0101979 0.00498185 0.0204999 0.0005 
199 1 0.0117441 0.00381901 0.0205 0.0005 
395 1 0.0105532 0.00284792 0.0205001 0.0005 
474 1 0.0139163 0.00188937 0.0207519 0.00075 
282 1 0.0104868 0.00183792 0.0205 0.0005 
590 1 0.0100198 0.000500037 0.0205002 0.0005 
176 1 0.013711 0.000502374 0.0205 0.0005 
289 1 0.0114768 0.000500278 0.0205 0.0005 
362 1 0.00846322 0.000499986 0.0205 0.0005 
783 1 0.0111275 0.00461443 0.0204998 0.0005 
51 1 0.0133792 0.00319447 0.0205031 0.0005 
233 1 0.0093914 0.0024787 0.0207765 0.00075 
217 1 0.0110501 0.00561216 0.0205003 0.0005 
549 1 0.0104979 0.00545416 0.0213289 0.0005 
126 1 0.0127445 0.00523452 0.0214995 0.0015 
676 1 0.0107263 0.000750054 0.0215009 0.00075 
209 1 0.0140391 0.00639369 0.0205 0.0005 
730 1 0.00918721 0.00127658 0.0205 0.0005 
311 1 0.0144844 0.00700191 0.0218299 0.001 
763 1 0.0099175 0.00362023 0.0205001 0.0005 
66 1 0.0144806 0.0051094 0.0205 0.0005 
61 1 0.0149574 0.00599526 0.0205 0.0005 
108 1 0.0148969 0.00352965 0.0213429 0.00125 
89 1 0.00924134 0.000500209 0.0211281 0.0005 
155 1 0.0120168 0.00225867 0.0212576 0.00125 
178 1 0.0149304 0.000750511 0.02075 0.00075 
364 1 0.0107681 0.00381893 0.0213942 0.00075 
895 1 0.0120587 0.000501965 0.0213133 0.0005 
598 1 0.012711 0.000500004 0.0205 0.0005 
1065 1 0.00932572 0.00134852 0.0223627 0.001 
3288 1 0.014785 0.00541153 0.0214033 0.0005 
524 1 0.0124416 0.000749576 0.0224987 0.00075 
161 1 0.0232506 0.000749866 0.0207493 0.00075 
159 1 0.0230313 0.00345522 0.0204999 0.0005 
204 1 0.0235002 0.00585875 0.0204996 0.0005 
219 1 0.0215373 0.000999758 0.0209997 0.001 
333 1 0.0232496 0.00466021 0.0207498 0.00075 
142 1 0.0232482 0.00225094 0.0207545 0.00075 
200 1 0.020067 0.00333634 0.0207508 0.00075 
340 1 0.0213554 0.00472866 0.02075 0.00075 
518 1 0.0197535 0.000750454 0.0207508 0.00075 
185 1 0.0165199 0.00576616 0.0213013 0.00125 
31 1 0.016926 0.0014997 0.021504 0.0015 
123 1 0.0229311 0.00111506 0.0224298 0.001 
273 1 0.0217468 0.00306428 0.0211753 0.001 
113 1 0.0176293 0.00310888 0.0205071 0.0005 
544 1 0.0188211 0.00454296 0.0210014 0.001 
577 1 0.0232498 0.00652024 0.0215297 0.00075 
652 1 0.018258 0.00585117 0.0214994 0.0005 
290 1 0.0187405 0.00259113 0.0207474 0.00075 
281 1 0.0203977 0.00432172 0.0218646 0.00075 
57 1 0.0202422 0.00653835 0.0214998 0.0015 
143 1 0.0222449 0.00648381 0.0205 0.0005 
853 1 0.0181921 0.00581172 0.0205003 0.0005 
106 1 0.0224008 0.0055717 0.0208792 0.0005 
1012 1 0.018095 0.00705545 0.0219305 0.00075 
109 1 0.0185207 0.00680113 0.0205 0.0005 
400 1 0.0214351 0.000500792 0.0224106 0.0005 
3343 1 0.0170908 0.00371474 0.0210904 0.0005 
64 1 0.00677638 0.00732028 0.0209997 0.001 
1778 1 0.00154818 0.00748814 0.0214914 0.0005 
380 1 0.00540845 0.00767899 0.0204999 0.0005 
256 1 0.00151783 0.00916804 0.0204996 0.0005 
75 1 0.00227471 0.00819354 0.02075 0.00075 
887 1 0.00694552 0.00814106 0.022244 0.0005 
1359 1 0.00365224 0.00863866 0.0205 0.0005 
588 1 0.00454977 0.00819756 0.0204999 0.0005 
360 1 0.00693235 0.0136292 0.0205 0.0005 
154 1 0.00533714 0.0099096 0.02075 0.00075 
13 1 0.000500364 0.00978726 0.0205 0.0005 
879 1 0.00542137 0.00868776 0.0205 0.0005 
137 1 0.000971434 0.0106709 0.0205 0.0005 
44 1 0.0052575 0.0114155 0.0207495 0.00075 
1166 1 0.0058377 0.00863378 0.0216775 0.00075 
1234 1 0.00578935 0.00991982 0.0219154 0.0005 
323 1 0.00296983 0.0105423 0.0219999 0.002 
820 1 0.0013882 0.0117923 0.0205 0.0005 
1067 1 0.00792969 0.0137475 0.0205 0.0005 
713 1 0.0033994 0.0131319 0.0205 0.0005 
881 1 0.000501256 0.0123419 0.0205 0.0005 
943 1 0.00395256 0.0122927 0.0205 0.0005 
673 1 0.00502395 0.0128968 0.0207497 0.00075 
174 1 0.00164153 0.0131846 0.0209999 0.001 
447 1 0.00626164 0.0107143 0.0205001 0.0005 
508 1 0.000500072 0.0140197 0.0205 0.0005 
891 1 0.00642712 0.0086908 0.0205 0.0005 
1190 1 0.00544758 0.0108595 0.021902 0.0005 
911 1 0.00491701 0.0121202 0.0217243 0.0005 
35 1 0.00774511 0.00981683 0.0214995 0.0015 
2621 1 0.00640458 0.0118843 0.0205 0.0005 
1032 1 0.00627426 0.0111695 0.0214327 0.0005 
1085 1 0.000749794 0.0121615 0.0221044 0.00075 
742 1 0.000500335 0.0114402 0.0209322 0.0005 
274 1 0.00795635 0.00809837 0.0204995 0.0005 
427 1 0.00468946 0.00892634 0.0211701 0.0005 
1407 1 0.000749689 0.00828207 0.0209313 0.00075 
401 1 0.0065821 0.0127959 0.0219992 0.00125 
1617 1 0.00163733 0.00843688 0.0217974 0.0005 
2240 1 0.00231506 0.0129341 0.0223164 0.0005 
1492 1 0.000499933 0.0074033 0.0217959 0.0005 
1001 1 0.00443573 0.0125383 0.0224946 0.0005 
872 1 0.00806141 0.0122729 0.02075 0.00075 
764 1 0.0108147 0.0071774 0.0212494 0.00125 
581 1 0.0126171 0.00739765 0.0221097 0.00075 
171 1 0.0132281 0.00756915 0.02075 0.00075 
1070 1 0.00836637 0.00740713 0.0217273 0.00075 
636 1 0.0121144 0.00808043 0.0205 0.0005 
275 1 0.0146259 0.00854881 0.0207532 0.00075 
46 1 0.00917546 0.00820843 0.02075 0.00075 
556 1 0.0138207 0.00984735 0.0207502 0.00075 
287 1 0.010737 0.0113059 0.0205 0.0005 
865 1 0.0135112 0.0125329 0.0205001 0.0005 
756 1 0.0117005 0.00976835 0.0215001 0.0015 
318 1 0.0135758 0.00856771 0.0218374 0.00075 
686 1 0.00951959 0.00938412 0.0205 0.0005 
10 1 0.015716 0.00916399 0.0205 0.0005 
569 1 0.0122831 0.0114003 0.0205016 0.0005 
252 1 0.00926098 0.0119496 0.0205 0.0005 
188 1 0.0148963 0.0135686 0.0215048 0.0015 
772 1 0.0125228 0.0123781 0.0205005 0.0005 
709 1 0.00974161 0.0105903 0.02075 0.00075 
1061 1 0.0111969 0.0121953 0.0205 0.0005 
1118 1 0.00898799 0.0115373 0.0214173 0.0005 
59 1 0.0117594 0.0130243 0.0205022 0.0005 
734 1 0.0127778 0.0137086 0.0207504 0.00075 
968 1 0.0119298 0.012014 0.0215389 0.00075 
62 1 0.00993488 0.0138504 0.0220012 0.002 
1238 1 0.0103133 0.00870925 0.0205008 0.0005 
1028 1 0.0135019 0.0113127 0.0207712 0.00075 
1653 1 0.0145177 0.00999179 0.0217784 0.0005 
80 1 0.015369 0.0109508 0.0210002 0.001 
810 1 0.00975074 0.00866548 0.0220589 0.00075 
1080 1 0.0133338 0.0120544 0.0220802 0.00075 
192 1 0.01576 0.00754105 0.020759 0.00075 
1883 1 0.0150211 0.0109689 0.02246 0.0005 
1056 1 0.0158974 0.0119134 0.0220235 0.0005 
938 1 0.00972352 0.00988573 0.0217875 0.0005 
1257 1 0.00818011 0.0120564 0.0219753 0.0005 
1225 1 0.0108658 0.0115231 0.0219741 0.0005 
714 1 0.0159839 0.0122242 0.0205 0.0005 
1096 1 0.0123784 0.0113616 0.0225071 0.0005 
452 1 0.0235001 0.00718309 0.0205 0.0005 
1922 1 0.016521 0.00854682 0.0205002 0.0005 
6 1 0.0222797 0.00789756 0.021 0.001 
190 1 0.0174194 0.00771416 0.0207542 0.00075 
1846 1 0.0166424 0.00954063 0.0205 0.0005 
342 1 0.0169358 0.0129947 0.0207496 0.00075 
319 1 0.0208627 0.00815839 0.0205 0.0005 
293 1 0.0187874 0.0116463 0.0217497 0.00175 
735 1 0.0207387 0.0105385 0.0215764 0.0005 
308 1 0.0200659 0.00932814 0.0209998 0.001 
49 1 0.0171382 0.0104097 0.0205 0.0005 
146 1 0.0194268 0.00806655 0.0205 0.0005 
578 1 0.0230003 0.00976286 0.0209996 0.001 
90 1 0.0186592 0.00835805 0.0214425 0.00075 
71 1 0.0214741 0.00917872 0.0205 0.0005 
659 1 0.0179729 0.00949889 0.0207501 0.00075 
967 1 0.0169246 0.0113868 0.0205 0.0005 
130 1 0.0203396 0.0126972 0.0205006 0.0005 
41 1 0.0216318 0.0108249 0.02075 0.00075 
231 1 0.0234993 0.0111011 0.0205 0.0005 
279 1 0.0235 0.00849924 0.0216347 0.0005 
693 1 0.0210207 0.00837743 0.0216595 0.0005 
725 1 0.0226243 0.0119656 0.0207494 0.00075 
697 1 0.0204092 0.0106999 0.0204999 0.0005 
330 1 0.0223311 0.0134362 0.0207497 0.00075 
800 1 0.0206576 0.0117168 0.0205001 0.0005 
538 1 0.0235001 0.0128217 0.0205 0.0005 
1236 1 0.0176931 0.0138555 0.0223321 0.0005 
812 1 0.0213622 0.0125652 0.0205 0.0005 
944 1 0.0235001 0.0140424 0.021475 0.0005 
794 1 0.0168731 0.0136967 0.0217821 0.0005 
592 1 0.0179978 0.0136038 0.0204998 0.0005 
910 1 0.021528 0.00958097 0.0219275 0.00075 
956 1 0.0189926 0.0135054 0.0204996 0.0005 
1899 1 0.0165498 0.0119097 0.0212656 0.0005 
1138 1 0.0225203 0.0111252 0.0219866 0.00075 
272 1 0.0234998 0.0138217 0.0204999 0.0005 
770 1 0.0235 0.0118144 0.0216284 0.0005 
1517 1 0.0213273 0.0119224 0.0212652 0.0005 
1498 1 0.0180204 0.0140522 0.0213933 0.0005 
1575 1 0.021797 0.00842473 0.0223189 0.0005 
2494 1 0.0186872 0.0138433 0.0222242 0.0005 
737 1 0.00581775 0.0142743 0.0205 0.0005 
479 1 0.000500588 0.0145258 0.0213687 0.0005 
296 1 0.00385075 0.0152142 0.0222498 0.00225 
646 1 0.00162868 0.0145988 0.0205 0.0005 
521 1 0.00129291 0.0152501 0.0211805 0.0005 
439 1 0.00719637 0.0154568 0.0212499 0.00125 
196 1 0.0005235 0.0150221 0.0205007 0.0005 
782 1 0.0005004 0.0157865 0.021472 0.0005 
70 1 0.00050004 0.016022 0.0205 0.0005 
888 1 0.00410544 0.017324 0.0205 0.0005 
550 1 0.00283779 0.0170981 0.0205064 0.0005 
529 1 0.00126787 0.0174791 0.0212499 0.00125 
269 1 0.00768803 0.0187523 0.0213379 0.00125 
19 1 0.0049419 0.0186638 0.021256 0.00125 
1077 1 0.00636237 0.0179766 0.0204998 0.0005 
1004 1 0.00654948 0.0202964 0.02075 0.00075 
688 1 0.000580651 0.0207022 0.0205001 0.0005 
1660 1 0.00532732 0.0202076 0.0205 0.0005 
972 1 0.00586126 0.0168593 0.0207498 0.00075 
576 1 0.000892281 0.0194459 0.0207783 0.00075 
1094 1 0.00691912 0.020393 0.0222005 0.00075 
430 1 0.00271603 0.0183165 0.0205 0.0005 
1829 1 0.00634372 0.017642 0.0216013 0.0005 
1696 1 0.00613319 0.0167208 0.0219619 0.0005 
1613 1 0.00339172 0.0178988 0.0215318 0.0005 
1859 1 0.00782424 0.0202824 0.0204999 0.0005 
436 1 0.0071481 0.0173138 0.0205 0.0005 
695 1 0.00776937 0.0170358 0.0223611 0.00075 
3191 1 0.00177003 0.0202952 0.0205 0.0005 
896 1 0.00739301 0.0211845 0.0205 0.0005 
3293 1 0.00201879 0.0192188 0.0220809 0.0005 
974 1 0.011833 0.0144894 0.0205 0.0005 
1 1 0.00839627 0.0169768 0.0207499 0.00075 
624 1 0.0127523 0.0147856 0.0213887 0.0005 
611 1 0.00886073 0.0156175 0.0205 0.0005 
110 1 0.0134521 0.0147354 0.0205 0.0005 
2226 1 0.0125561 0.0152 0.0205 0.0005 
877 1 0.0102651 0.0186994 0.0205 0.0005 
1570 1 0.00883948 0.0197694 0.0205 0.0005 
54 1 0.0094575 0.0174618 0.0221544 0.001 
118 1 0.0141467 0.0162021 0.0212526 0.00125 
717 1 0.0111497 0.0182003 0.0205 0.0005 
1232 1 0.0114087 0.0153949 0.0205 0.0005 
934 1 0.012199 0.0190464 0.0207498 0.00075 
1310 1 0.0126294 0.0166664 0.0205 0.0005 
1212 1 0.0147671 0.0187172 0.0205 0.0005 
1035 1 0.010935 0.0171046 0.0205 0.0005 
1592 1 0.0110147 0.0193618 0.0205 0.0005 
1697 1 0.00983269 0.019997 0.0205022 0.0005 
2033 1 0.012368 0.0197436 0.0217735 0.0005 
1264 1 0.010774 0.0203352 0.0205 0.0005 
1164 1 0.0120622 0.0205779 0.0207499 0.00075 
982 1 0.0139316 0.020421 0.0204999 0.0005 
1448 1 0.0118811 0.017429 0.0205 0.0005 
2386 1 0.0130432 0.0178079 0.0208024 0.00075 
2420 1 0.0130801 0.019897 0.0204999 0.0005 
2431 1 0.0142651 0.0177776 0.0205 0.0005 
2287 1 0.013426 0.0189587 0.0205 0.0005 
2500 1 0.0142139 0.0195046 0.0207847 0.0005 
2378 1 0.0133689 0.019471 0.0213737 0.0005 
2447 1 0.0127883 0.0185732 0.0220671 0.00075 
2086 1 0.0124158 0.0159422 0.0211557 0.0005 
1311 1 0.0151092 0.019847 0.0204999 0.0005 
2645 1 0.0146441 0.0178703 0.0214306 0.0005 
1376 1 0.00927982 0.0188714 0.0205 0.0005 
2392 1 0.0109412 0.0177204 0.0214008 0.0005 
1757 1 0.0141413 0.0203262 0.0214728 0.0005 
2594 1 0.0131587 0.020452 0.0213365 0.0005 
2618 1 0.0145766 0.0174745 0.0223768 0.0005 
2897 1 0.00923141 0.0178726 0.0205 0.0005 
1338 1 0.0152626 0.0178485 0.0205 0.0005 
2978 1 0.00984778 0.0164932 0.02075 0.00075 
2989 1 0.0112299 0.0186768 0.0214476 0.0005 
2598 1 0.014938 0.0192009 0.022063 0.001 
2289 1 0.0119427 0.0178729 0.0213975 0.0005 
3051 1 0.0116633 0.0163621 0.0205 0.0005 
3061 1 0.00888739 0.0160449 0.0214224 0.0005 
3029 1 0.0113449 0.019706 0.02138 0.0005 
3080 1 0.0114285 0.0168483 0.0213417 0.0005 
2473 1 0.0137446 0.0177898 0.0218694 0.0005 
43 1 0.0153907 0.0152264 0.0205004 0.0005 
3118 1 0.0109329 0.016005 0.0211334 0.0005 
748 1 0.00882724 0.0161128 0.0224466 0.0005 
2294 1 0.0124186 0.0169393 0.02145 0.0005 
3001 1 0.0115451 0.0205439 0.0218873 0.0005 
3168 1 0.0123549 0.0161595 0.022132 0.0005 
3174 1 0.0101923 0.0177306 0.0207378 0.0005 
3188 1 0.0109321 0.0170997 0.0221848 0.0005 
3010 1 0.0105972 0.0207989 0.0216969 0.0005 
3215 1 0.011354 0.01619 0.0221266 0.0005 
3149 1 0.010385 0.0163079 0.0219132 0.0005 
1247 1 0.00996708 0.0193748 0.0218711 0.001 
2060 1 0.00862229 0.0199383 0.0222223 0.0005 
2511 1 0.0158402 0.0170321 0.0205 0.0005 
2460 1 0.0157109 0.0190484 0.0205 0.0005 
1577 1 0.0132152 0.0211654 0.0205 0.0005 
1772 1 0.0113756 0.0179865 0.0223659 0.0005 
2681 1 0.0146699 0.0211376 0.0219767 0.0005 
941 1 0.0119475 0.0153163 0.0217814 0.0005 
1775 1 0.0137548 0.0212443 0.0215578 0.0005 
3257 1 0.0116302 0.0189794 0.0223132 0.0005 
189 1 0.0159712 0.0160407 0.0205 0.0005 
523 1 0.0185794 0.0144168 0.0205002 0.0005 
639 1 0.0224541 0.0145195 0.021429 0.0005 
350 1 0.020457 0.0144292 0.0214997 0.0015 
78 1 0.022821 0.014558 0.0204996 0.0005 
2117 1 0.0159986 0.0160739 0.0214992 0.0005 
139 1 0.0169028 0.0149768 0.0210002 0.001 
1193 1 0.0184943 0.014954 0.0213396 0.0005 
345 1 0.0189797 0.0153327 0.0204997 0.0005 
741 1 0.0179981 0.0158781 0.0214888 0.0005 
450 1 0.0180774 0.0157635 0.0204994 0.0005 
947 1 0.0172144 0.0179903 0.0204999 0.0005 
591 1 0.0222122 0.0156203 0.0207499 0.00075 
465 1 0.0181455 0.0172659 0.0205 0.0005 
719 1 0.0189798 0.0164791 0.0209971 0.00075 
628 1 0.0235004 0.0168208 0.0204998 0.0005 
42 1 0.0223123 0.0171166 0.0207496 0.00075 
747 1 0.0210665 0.0160531 0.0205 0.0005 
813 1 0.0199778 0.0171566 0.0205 0.0005 
787 1 0.0183136 0.0182515 0.0204999 0.0005 
492 1 0.019089 0.0176203 0.0204998 0.0005 
238 1 0.0235 0.0178208 0.0204999 0.0005 
1216 1 0.0195285 0.0177677 0.0216605 0.00075 
1230 1 0.0170584 0.0167018 0.02075 0.00075 
566 1 0.0206412 0.0181942 0.0207497 0.00075 
1333 1 0.0210873 0.0170529 0.0205 0.0005 
1091 1 0.0192912 0.0185994 0.0204999 0.0005 
1398 1 0.0210816 0.0202343 0.0204999 0.0005 
1189 1 0.0235004 0.0150065 0.0210794 0.0005 
1427 1 0.0200685 0.0161173 0.0205 0.0005 
898 1 0.0183432 0.0181273 0.0214928 0.0005 
1452 1 0.0200396 0.0195686 0.0207499 0.00075 
1488 1 0.0180144 0.0194389 0.0207503 0.00075 
1124 1 0.0235 0.015821 0.0204998 0.0005 
1020 1 0.0224924 0.0192297 0.0214999 0.0015 
1401 1 0.0214197 0.016635 0.022175 0.001 
1298 1 0.0201738 0.0166499 0.0213397 0.0005 
1170 1 0.0232271 0.0162962 0.0216234 0.00075 
1831 1 0.0172668 0.0186637 0.0213873 0.0005 
1320 1 0.0189181 0.020636 0.0207499 0.00075 
1598 1 0.0199018 0.0205469 0.0215156 0.0005 
1437 1 0.0235 0.0209557 0.0214267 0.0005 
1184 1 0.0235002 0.0175031 0.021448 0.0005 
1692 1 0.0190024 0.0188754 0.0214166 0.0005 
1828 1 0.0174513 0.0176809 0.0214208 0.0005 
1202 1 0.0206406 0.0199291 0.0217848 0.0005 
1460 1 0.0208467 0.02079 0.0212973 0.0005 
1984 1 0.0192019 0.0198251 0.0216576 0.0005 
1738 1 0.0168966 0.0189385 0.0205 0.0005 
1648 1 0.0164847 0.0206263 0.02125 0.00125 
2467 1 0.0162328 0.0181882 0.0205 0.0005 
1963 1 0.0190065 0.0207472 0.0219917 0.0005 
1434 1 0.0232502 0.0149455 0.0223022 0.00075 
1796 1 0.0197904 0.0193306 0.0222971 0.0005 
1105 1 0.0202288 0.0207784 0.0204998 0.0005 
1865 1 0.0162939 0.0188874 0.0212963 0.0005 
1767 1 0.020784 0.0179782 0.0219723 0.0005 
1929 1 0.0205279 0.0189363 0.0217489 0.0005 
2072 1 0.0235001 0.0177634 0.0224136 0.0005 
2099 1 0.0196476 0.0164398 0.0221637 0.0005 
838 1 0.0160365 0.017538 0.0218983 0.001 
2396 1 0.0170826 0.0160578 0.0220256 0.0005 
2547 1 0.0189902 0.0157038 0.0219776 0.0005 
1941 1 0.0179134 0.0150804 0.0224467 0.00075 
223 1 0.00435028 0.02149 0.0220696 0.00175 
678 1 0.00153277 0.0215633 0.0212767 0.001 
700 1 0.00642588 0.0219358 0.0207498 0.00075 
1293 1 0.00278066 0.0218702 0.0205013 0.0005 
1416 1 0.00333051 0.0227362 0.0204993 0.0005 
1578 1 0.00552556 0.0228434 0.0205 0.0005 
482 1 0.00051058 0.0223636 0.0205 0.0005 
12 1 0.00216935 0.0231222 0.0207502 0.00075 
952 1 0.00575846 0.0255444 0.0205 0.0005 
1439 1 0.00670268 0.0246601 0.0207499 0.00075 
831 1 0.00500868 0.0242995 0.021 0.001 
534 1 0.000749274 0.0236025 0.0207506 0.00075 
1423 1 0.00114925 0.026795 0.0211641 0.0005 
1406 1 0.000642658 0.02622 0.0204999 0.0005 
483 1 0.000499995 0.0272098 0.0205 0.0005 
1483 1 0.00763774 0.0221541 0.0204999 0.0005 
1512 1 0.00305466 0.0262989 0.0205 0.0005 
752 1 0.00587649 0.0269074 0.0205 0.0005 
1805 1 0.00350441 0.0251583 0.02075 0.00075 
1576 1 0.000500025 0.0248077 0.0205 0.0005 
1373 1 0.00684149 0.0261534 0.0207505 0.00075 
1860 1 0.00426179 0.0230992 0.0204998 0.0005 
1625 1 0.000500086 0.0226282 0.0215002 0.0005 
1455 1 0.00178822 0.0253911 0.0210003 0.001 
1942 1 0.00715592 0.0232378 0.0208946 0.00075 
1926 1 0.000500509 0.0245943 0.021477 0.0005 
1520 1 0.00668292 0.0273886 0.020857 0.0005 
1143 1 0.00303794 0.0275867 0.0208432 0.00075 
2021 1 0.00781805 0.0268924 0.0205 0.0005 
980 1 0.00521664 0.0276587 0.0204999 0.0005 
1825 1 0.000499947 0.0260045 0.0214658 0.0005 
2481 1 0.00750034 0.0278405 0.0205 0.0005 
2583 1 0.00462178 0.0256593 0.0204997 0.0005 
1893 1 0.00076764 0.0253087 0.0221322 0.0005 
2706 1 0.000499893 0.026808 0.022061 0.0005 
348 1 0.00216623 0.0267579 0.0205 0.0005 
775 1 0.0052254 0.0263062 0.0220092 0.00125 
1662 1 0.00334644 0.0238211 0.0214109 0.00075 
2168 1 0.00701595 0.0271961 0.0220463 0.00075 
2244 1 0.00146597 0.0274718 0.0204999 0.0005 
2852 1 0.00406133 0.0264872 0.0204997 0.0005 
2884 1 0.00352976 0.0265526 0.0213437 0.0005 
2920 1 0.00598746 0.0278716 0.0218262 0.0005 
1474 1 0.00619265 0.0233266 0.0216865 0.0005 
1449 1 0.00206187 0.0282875 0.0204998 0.0005 
2833 1 0.00413189 0.0276769 0.0214733 0.0005 
2427 1 0.00423431 0.027472 0.0205 0.0005 
1991 1 0.00627545 0.0245278 0.0221854 0.00075 
2813 1 0.00148826 0.0277288 0.0214659 0.0005 
1209 1 0.000499855 0.0275825 0.0214287 0.0005 
2922 1 0.0023983 0.0272142 0.0221509 0.00075 
2991 1 0.00364888 0.0271269 0.0221547 0.0005 
2406 1 0.00512096 0.028021 0.0223448 0.0005 
3065 1 0.00501432 0.0281326 0.0213568 0.0005 
1861 1 0.0031195 0.025652 0.0224703 0.001 
2864 1 0.00337465 0.0283515 0.022206 0.00075 
2565 1 0.00815156 0.0239088 0.0205 0.0005 
600 1 0.00899571 0.0213443 0.0212499 0.00125 
1144 1 0.0105088 0.0224268 0.0215598 0.0005 
1650 1 0.00830862 0.0229203 0.0205 0.0005 
946 1 0.00816163 0.0251774 0.0220452 0.00125 
904 1 0.00880437 0.0246668 0.0204998 0.0005 
1081 1 0.00854643 0.0262001 0.0205 0.0005 
1343 1 0.010921 0.0215513 0.02075 0.00075 
1394 1 0.00959762 0.0234982 0.0210046 0.001 
1698 1 0.0096347 0.025567 0.0207499 0.00075 
1342 1 0.0110685 0.0245471 0.0216789 0.00075 
978 1 0.0105422 0.0263893 0.0204999 0.0005 
1208 1 0.0104323 0.0246377 0.0204999 0.0005 
1350 1 0.0132084 0.0235549 0.0205 0.0005 
919 1 0.00939783 0.0278947 0.0217499 0.00175 
780 1 0.0126253 0.0258014 0.0205004 0.0005 
353 1 0.0142055 0.0234751 0.0205 0.0005 
1294 1 0.0124591 0.0227669 0.0204999 0.0005 
1180 1 0.0121138 0.0218284 0.0204998 0.0005 
1462 1 0.0115354 0.0256781 0.0212983 0.0005 
1467 1 0.0122297 0.0237604 0.0204999 0.0005 
1552 1 0.0125935 0.0216976 0.0216464 0.00075 
1602 1 0.0115651 0.0262856 0.0205 0.0005 
1621 1 0.0126923 0.0253905 0.0216795 0.00075 
861 1 0.0139873 0.0246868 0.02075 0.00075 
1643 1 0.0118988 0.0251103 0.0205 0.0005 
1539 1 0.0127647 0.0246102 0.0205 0.0005 
1330 1 0.0133272 0.0238446 0.0214508 0.0005 
1192 1 0.0145944 0.0257817 0.0205 0.0005 
1614 1 0.0112594 0.0230127 0.02075 0.00075 
1693 1 0.0148262 0.0226045 0.0205 0.0005 
1618 1 0.0113561 0.0242469 0.0205 0.0005 
1221 1 0.0136188 0.0224142 0.0208046 0.00075 
1915 1 0.0135907 0.0260659 0.0205 0.0005 
1869 1 0.0109656 0.0254835 0.0205 0.0005 
2193 1 0.0111371 0.027193 0.0205 0.0005 
2263 1 0.0138667 0.0257343 0.0214212 0.0005 
2270 1 0.0127069 0.0273814 0.0212499 0.00125 
1753 1 0.0146977 0.023703 0.0213407 0.0005 
862 1 0.0146654 0.0273011 0.0204998 0.0005 
2004 1 0.0142524 0.0265832 0.0210599 0.0005 
1958 1 0.0144036 0.0275892 0.0216305 0.0005 
2243 1 0.0156837 0.0266211 0.0207499 0.00075 
1017 1 0.0146993 0.0213754 0.0207499 0.00075 
2348 1 0.0139768 0.0231459 0.0217528 0.0005 
1955 1 0.0148287 0.0259554 0.0215827 0.0005 
2603 1 0.0124896 0.0232973 0.0213471 0.0005 
2121 1 0.0106019 0.0260148 0.0214251 0.0005 
2261 1 0.0153262 0.0277775 0.0212604 0.0005 
2026 1 0.0112494 0.0266215 0.0218861 0.0005 
2662 1 0.0130561 0.0228154 0.0220154 0.0005 
2201 1 0.0122452 0.0242667 0.0213638 0.0005 
2010 1 0.0126756 0.0239122 0.0222076 0.0005 
1931 1 0.0107664 0.025582 0.0223115 0.0005 
2419 1 0.0150965 0.0268932 0.0218191 0.0005 
1768 1 0.0159746 0.0278136 0.0205 0.0005 
2097 1 0.00984254 0.0246991 0.0218715 0.0005 
2143 1 0.00819512 0.0235036 0.0215359 0.0005 
2411 1 0.00983082 0.0256985 0.0219775 0.0005 
1682 1 0.0113225 0.0215182 0.0219333 0.0005 
1989 1 0.0140658 0.02649 0.0224154 0.00075 
1288 1 0.0157518 0.0220278 0.0205 0.0005 
1563 1 0.0152107 0.0235276 0.0205 0.0005 
144 1 0.0157078 0.0248895 0.0210001 0.001 
1794 1 0.0153296 0.0224851 0.0219472 0.001 
1935 1 0.0112455 0.0281869 0.0204999 0.0005 
2319 1 0.0153803 0.0261288 0.0223987 0.0005 
2550 1 0.00909996 0.0237428 0.0223983 0.0005 
1881 1 0.0157162 0.0239238 0.022159 0.0005 
2463 1 0.0114663 0.027393 0.0224841 0.0005 
957 1 0.023493 0.0213313 0.0205 0.0005 
1837 1 0.0160526 0.0268413 0.022136 0.0005 
1219 1 0.0220475 0.0216383 0.0209999 0.001 
152 1 0.0204557 0.0238438 0.0205 0.0005 
1292 1 0.0164157 0.0233092 0.0207504 0.00075 
512 1 0.0190443 0.026394 0.0205 0.0005 
1048 1 0.01803 0.0218446 0.02075 0.00075 
1415 1 0.021388 0.0228893 0.0205 0.0005 
1087 1 0.0234994 0.0255467 0.0205 0.0005 
1176 1 0.0179165 0.0254407 0.02075 0.00075 
1269 1 0.0232501 0.0228846 0.02075 0.00075 
1507 1 0.0232521 0.0234789 0.0218496 0.0005 
1574 1 0.0234961 0.0266638 0.0205 0.0005 
1472 1 0.0229392 0.0244576 0.02075 0.00075 
1590 1 0.0218829 0.0251693 0.0205 0.0005 
1634 1 0.0179161 0.0233428 0.02075 0.00075 
908 1 0.0221862 0.0234917 0.0205 0.0005 
1646 1 0.0168482 0.0221643 0.0204996 0.0005 
1927 1 0.0167479 0.0258738 0.0205 0.0005 
1897 1 0.0170766 0.0225572 0.0218726 0.00075 
1370 1 0.0224855 0.0274467 0.02075 0.00075 
1978 1 0.0170903 0.0245365 0.0205 0.0005 
1514 1 0.0199054 0.0223258 0.0212498 0.00125 
1925 1 0.0214848 0.0242265 0.0205 0.0005 
1527 1 0.0171482 0.02406 0.0218226 0.00075 
1106 1 0.0174857 0.0273296 0.02125 0.00125 
1323 1 0.0190655 0.0273954 0.0205 0.0005 
1267 1 0.0204145 0.026823 0.0210009 0.001 
1910 1 0.0191294 0.0273135 0.0218516 0.0005 
2162 1 0.0210867 0.0213689 0.0221199 0.0005 
2008 1 0.0184817 0.0281799 0.0224113 0.0005 
2303 1 0.0180038 0.0214425 0.0222631 0.00075 
3251 1 0.0190927 0.0236829 0.0205 0.0005 
1974 1 0.0234902 0.0280118 0.0213655 0.0005 
1702 1 0.000499867 0.0284457 0.0219379 0.0005 
1285 1 0.000869243 0.0285647 0.0207499 0.00075 
2449 1 0.00724626 0.0284323 0.0212701 0.0005 
1480 1 0.00611139 0.028495 0.0207499 0.00075 
1103 1 0.00485457 0.0286227 0.0205 0.0005 
138 1 0.00776367 0.0288052 0.0204999 0.0005 
162 1 0.000506967 0.0315427 0.0205 0.0005 
259 1 0.00377917 0.0316267 0.0205 0.0005 
522 1 0.00167048 0.0335295 0.0207498 0.00075 
337 1 0.00290728 0.0300167 0.0207499 0.00075 
638 1 0.0052746 0.0330107 0.0207498 0.00075 
506 1 0.000499771 0.0338542 0.0210428 0.0005 
1084 1 0.0014774 0.0304695 0.02075 0.00075 
1355 1 0.00304438 0.0332248 0.0205 0.0005 
1451 1 0.00386803 0.0284593 0.0205 0.0005 
412 1 0.00237801 0.0319488 0.0209998 0.001 
1607 1 0.00187371 0.0293095 0.0205 0.0005 
1290 1 0.00049978 0.0297322 0.0204999 0.0005 
1761 1 0.00661292 0.0342548 0.0204997 0.0005 
1760 1 0.00408277 0.0332918 0.0204997 0.0005 
1611 1 0.00521167 0.0342341 0.0205 0.0005 
2278 1 0.00292509 0.0287921 0.0205 0.0005 
2306 1 0.00500771 0.0315347 0.0207499 0.00075 
2343 1 0.00540218 0.0303738 0.0205 0.0005 
2387 1 0.00641943 0.0320415 0.02075 0.00075 
2407 1 0.00400797 0.0306189 0.0205 0.0005 
2421 1 0.00647265 0.0332649 0.0204999 0.0005 
672 1 0.00755119 0.0349553 0.0209367 0.00075 
2537 1 0.00424353 0.0294768 0.0204997 0.0005 
1872 1 0.00702453 0.0302024 0.0212506 0.00125 
1792 1 0.00415103 0.0310922 0.0218988 0.00075 
2484 1 0.00538033 0.0306932 0.0215957 0.0005 
2573 1 0.00515967 0.029487 0.0213498 0.00075 
1993 1 0.00207034 0.028822 0.021634 0.00075 
2455 1 0.00744565 0.0325713 0.0214771 0.0005 
2622 1 0.00638216 0.0316747 0.0219456 0.0005 
1291 1 0.000858378 0.0326306 0.0216351 0.00075 
2548 1 0.00294108 0.0307739 0.0217439 0.0005 
2570 1 0.00563218 0.0322921 0.0217082 0.0005 
897 1 0.000500021 0.033012 0.0205 0.0005 
1168 1 0.00396316 0.0325184 0.0214741 0.00075 
1136 1 0.000749872 0.0311531 0.0218695 0.00075 
2381 1 0.00401492 0.0289853 0.0213398 0.0005 
2530 1 0.00401529 0.0299889 0.0213275 0.0005 
2154 1 0.000788528 0.0296546 0.0218042 0.00075 
535 1 0.00149902 0.0349062 0.0205 0.0005 
2604 1 0.00642391 0.0338057 0.0221803 0.00125 
2371 1 0.00197039 0.0309353 0.0220277 0.0005 
2660 1 0.00491599 0.0302084 0.0223416 0.0005 
2423 1 0.00602585 0.0289533 0.0224517 0.00075 
2337 1 0.00738777 0.0327914 0.0205 0.0005 
2626 1 0.00529758 0.0314884 0.0222002 0.0005 
2456 1 0.00737763 0.0317342 0.0220197 0.0005 
2628 1 0.002048 0.0331181 0.0218794 0.0005 
2874 1 0.00756676 0.0351763 0.0221669 0.0005 
835 1 0.00749588 0.0337855 0.0205 0.0005 
2718 1 0.00346804 0.0298737 0.0224452 0.00075 
1417 1 0.000974637 0.0340205 0.0221869 0.00075 
2759 1 0.00231345 0.0299973 0.0219829 0.0005 
2152 1 0.000515827 0.0346937 0.0204999 0.0005 
2631 1 0.00453856 0.0289469 0.0222906 0.0005 
249 1 0.0034677 0.0351704 0.0220299 0.002 
1529 1 0.00589999 0.0352503 0.0207499 0.00075 
2998 1 0.00724478 0.0284394 0.0222701 0.0005 
1281 1 0.000749869 0.0354192 0.0216935 0.00075 
2493 1 0.00878276 0.0350183 0.0211759 0.0005 
2772 1 0.00811541 0.0295954 0.0224769 0.0005 
2393 1 0.0115405 0.0285809 0.0217628 0.0005 
1987 1 0.0148468 0.028493 0.0218802 0.0005 
1870 1 0.0143109 0.0284729 0.0207511 0.00075 
2301 1 0.0127817 0.0291452 0.0221898 0.00075 
505 1 0.00847495 0.0295242 0.0205 0.0005 
886 1 0.0085737 0.0305196 0.0204999 0.0005 
1249 1 0.0130042 0.032457 0.0207499 0.00075 
1154 1 0.0107849 0.0322407 0.0205 0.0005 
609 1 0.0117888 0.0323067 0.0204998 0.0005 
1134 1 0.00811239 0.031804 0.0207499 0.00075 
1340 1 0.0112846 0.0331701 0.0204999 0.0005 
1678 1 0.0122344 0.0334825 0.0205 0.0005 
1703 1 0.0104451 0.0312951 0.0205 0.0005 
1095 1 0.013218 0.0336628 0.0204999 0.0005 
1815 1 0.00945801 0.0309905 0.0204999 0.0005 
1348 1 0.0130106 0.0299503 0.0205 0.0005 
2043 1 0.0107076 0.0292308 0.0205 0.0005 
1867 1 0.00844056 0.0332257 0.0210972 0.00075 
1793 1 0.0144672 0.0296764 0.0220134 0.00075 
2242 1 0.0119695 0.0309056 0.0210035 0.001 
2245 1 0.00998496 0.0304313 0.0214857 0.00075 
2266 1 0.0131639 0.0289012 0.0204999 0.0005 
1954 1 0.0107281 0.0302307 0.0205 0.0005 
1762 1 0.00888683 0.0310059 0.0213205 0.0005 
640 1 0.0095559 0.0322113 0.0207499 0.00075 
2323 1 0.0124698 0.0344544 0.0205 0.0005 
2362 1 0.0141589 0.0296878 0.0204998 0.0005 
2347 1 0.0114633 0.0341542 0.0205 0.0005 
1361 1 0.0153572 0.0299244 0.0207649 0.00075 
2202 1 0.0140336 0.0310753 0.0210555 0.001 
2451 1 0.01197 0.0291742 0.0207499 0.00075 
1083 1 0.0147548 0.0332871 0.0212499 0.00125 
2305 1 0.0153578 0.0308072 0.0217077 0.0005 
2225 1 0.00962528 0.0297517 0.0205 0.0005 
2408 1 0.0132882 0.0343013 0.0212661 0.0005 
2304 1 0.0100736 0.0338536 0.0210617 0.001 
2574 1 0.0135093 0.0294873 0.0212329 0.0005 
698 1 0.0156937 0.0315368 0.02075 0.00075 
2404 1 0.0125367 0.0334439 0.0217781 0.00075 
2390 1 0.00886127 0.031911 0.021745 0.0005 
2252 1 0.0119873 0.032362 0.0214782 0.0005 
2577 1 0.0111244 0.0328758 0.0214983 0.0005 
2505 1 0.0130334 0.0303331 0.0218929 0.0005 
2439 1 0.0159055 0.0321087 0.0218411 0.0005 
2247 1 0.0117156 0.0347007 0.0213164 0.0005 
1786 1 0.0155153 0.0287042 0.0204997 0.0005 
2469 1 0.00873743 0.0342829 0.0204999 0.0005 
2379 1 0.0124431 0.0309846 0.0224244 0.0005 
2612 1 0.00830492 0.0343128 0.0216989 0.0005 
2443 1 0.00876194 0.030014 0.0213418 0.0005 