ITEM: TIMESTEP
330000
ITEM: NUMBER OF ATOMS
2734
ITEM: BOX BOUNDS mm mm mm
-2.4e-06 0.0240024
-7.8e-06 0.0780078
-3e-06 0.030003
ITEM: ATOMS id type x y z radius 
291 1 0.00284679 0.00153958 0.0214994 0.0015 
368 1 0.000500195 0.00150852 0.0205 0.0005 
784 1 0.00562962 0.00341896 0.02075 0.00075 
32 1 0.00525291 0.00049998 0.0205 0.0005 
241 1 0.00462189 0.00247978 0.0205 0.0005 
815 1 0.00120793 0.00221647 0.0205 0.0005 
448 1 0.00377117 0.00300537 0.0205 0.0005 
300 1 0.00049996 0.000499966 0.0204999 0.0005 
442 1 0.00104954 0.00363836 0.0209999 0.001 
816 1 0.00609961 0.00490972 0.0205 0.0005 
710 1 0.00423798 0.00050073 0.0205 0.0005 
527 1 0.000502326 0.00494289 0.0205 0.0005 
256 1 0.00083425 0.00620816 0.0205 0.0005 
870 1 0.00778288 0.00602989 0.0205 0.0005 
100 1 0.00498811 0.00258475 0.0214245 0.0005 
153 1 0.00526758 0.00171409 0.0205 0.0005 
486 1 0.00365551 0.00512477 0.0222497 0.00225 
722 1 0.00148815 0.00519742 0.0205 0.0005 
864 1 0.00476367 0.00111301 0.0211203 0.0005 
503 1 0.000500008 0.00494659 0.0214999 0.0005 
561 1 0.00641691 0.0021372 0.02075 0.00075 
501 1 0.00575287 0.000713672 0.0213393 0.0005 
64 1 0.00639161 0.00635441 0.0209997 0.001 
954 1 0.00625288 0.000500011 0.0205 0.0005 
75 1 0.0018079 0.00695117 0.0207498 0.00075 
390 1 0.000499992 0.00594199 0.0214041 0.0005 
380 1 0.00490808 0.00688217 0.0205 0.0005 
587 1 0.00049992 0.00402269 0.0223415 0.0005 
370 1 0.00742312 0.000862114 0.0207499 0.00075 
28 1 0.000749726 0.000749901 0.0216988 0.00075 
842 1 0.00631081 0.00582487 0.0224008 0.0005 
220 1 0.00735914 0.000749933 0.0222442 0.00075 
1070 1 0.00785975 0.00677541 0.0218534 0.00075 
1492 1 0.000499972 0.0050103 0.0224978 0.0005 
307 1 0.0078365 0.00201823 0.0205 0.0005 
324 1 0.00800853 0.0040334 0.0219995 0.002 
1195 1 0.00820245 0.00162043 0.0213664 0.0005 
121 1 0.00878136 0.00588965 0.0205 0.0005 
228 1 0.00957867 0.00528546 0.0205 0.0005 
490 1 0.00998596 0.00436724 0.0205 0.0005 
199 1 0.0117017 0.00332291 0.0205 0.0005 
395 1 0.0107896 0.00271852 0.0204997 0.0005 
474 1 0.0139977 0.00192048 0.02075 0.00075 
282 1 0.0105453 0.00132416 0.0205 0.0005 
590 1 0.0098498 0.000499969 0.0204999 0.0005 
176 1 0.0136259 0.000500583 0.0205 0.0005 
289 1 0.0111116 0.000499994 0.0205 0.0005 
362 1 0.00884984 0.00049999 0.0205 0.0005 
783 1 0.0109156 0.00399879 0.0204999 0.0005 
51 1 0.0135703 0.00314918 0.0205 0.0005 
233 1 0.00968283 0.00219375 0.02075 0.00075 
217 1 0.0109334 0.0049986 0.0205 0.0005 
549 1 0.010434 0.00472138 0.0213208 0.0005 
126 1 0.0126507 0.0047718 0.0214998 0.0015 
676 1 0.0103887 0.00074992 0.0215996 0.00075 
209 1 0.0139292 0.00594068 0.0205001 0.0005 
730 1 0.00868329 0.00148601 0.0205 0.0005 
764 1 0.0105559 0.00653562 0.0212499 0.00125 
311 1 0.0145316 0.0066085 0.0217007 0.001 
763 1 0.01003 0.0033684 0.0205 0.0005 
66 1 0.0144279 0.00493109 0.0204999 0.0005 
61 1 0.0149464 0.00578613 0.0205 0.0005 
108 1 0.0151111 0.00350513 0.0212495 0.00125 
89 1 0.00842429 0.000499995 0.0214049 0.0005 
155 1 0.0120644 0.00178385 0.0212497 0.00125 
178 1 0.0150004 0.000749988 0.02075 0.00075 
364 1 0.0108762 0.00335966 0.0215734 0.00075 
895 1 0.0114243 0.000500604 0.0222537 0.0005 
598 1 0.0129559 0.000499506 0.0220347 0.0005 
171 1 0.0130102 0.006864 0.02075 0.00075 
581 1 0.0122741 0.00687076 0.0222172 0.00075 
161 1 0.02325 0.000750056 0.02075 0.00075 
159 1 0.022735 0.00336133 0.0205 0.0005 
204 1 0.0234998 0.00494736 0.0205 0.0005 
219 1 0.0214413 0.000999747 0.0209998 0.001 
333 1 0.02325 0.0040903 0.0213751 0.00075 
142 1 0.0232499 0.0022501 0.02075 0.00075 
200 1 0.0203811 0.0024377 0.02075 0.00075 
340 1 0.0216531 0.00437759 0.0207499 0.00075 
452 1 0.0235 0.00601762 0.0205 0.0005 
518 1 0.0196515 0.000767245 0.02075 0.00075 
185 1 0.0165136 0.00557674 0.0212499 0.00125 
31 1 0.0169848 0.00149986 0.0214998 0.0015 
123 1 0.0228393 0.00100022 0.0224326 0.001 
273 1 0.0218491 0.00286226 0.0216028 0.001 
113 1 0.0167462 0.00328404 0.0205 0.0005 
544 1 0.0187197 0.0041766 0.0209999 0.001 
577 1 0.0232501 0.00557537 0.0216421 0.00075 
652 1 0.0182385 0.00549361 0.0215331 0.0005 
290 1 0.0188807 0.00245207 0.02075 0.00075 
281 1 0.0203701 0.00378081 0.0214267 0.00075 
57 1 0.020322 0.00602915 0.0215 0.0015 
143 1 0.0226487 0.00547285 0.0205 0.0005 
853 1 0.0180898 0.00544293 0.0205 0.0005 
106 1 0.0220904 0.00510941 0.021664 0.0005 
1012 1 0.0181966 0.00673828 0.0217043 0.00075 
109 1 0.0185612 0.00632491 0.0205 0.0005 
6 1 0.0225439 0.00705994 0.0209997 0.001 
887 1 0.00672852 0.00714658 0.0222352 0.0005 
274 1 0.00751907 0.00724492 0.0205 0.0005 
998 1 0.000749845 0.00718877 0.021786 0.00075 
1359 1 0.00297635 0.00731956 0.0205 0.0005 
588 1 0.00397348 0.0072382 0.0205 0.0005 
360 1 0.00565659 0.0119646 0.0205 0.0005 
154 1 0.00470066 0.00823263 0.02075 0.00075 
13 1 0.000522952 0.00716143 0.0205 0.0005 
879 1 0.00576162 0.00762061 0.0204999 0.0005 
137 1 0.00061456 0.00815756 0.0205 0.0005 
44 1 0.00493781 0.00973752 0.0207499 0.00075 
1166 1 0.00589658 0.00791628 0.0217069 0.00075 
1234 1 0.00583956 0.00912333 0.0213598 0.0005 
323 1 0.0024966 0.00930184 0.0219996 0.002 
820 1 0.000499702 0.00940552 0.0204997 0.0005 
1067 1 0.00783167 0.0125046 0.0205 0.0005 
713 1 0.00256921 0.0117066 0.0205 0.0005 
881 1 0.000500024 0.0104213 0.0205 0.0005 
943 1 0.00339918 0.0111487 0.0205 0.0005 
673 1 0.00467431 0.0112328 0.02075 0.00075 
174 1 0.00104517 0.01173 0.0209999 0.001 
447 1 0.00588448 0.00861349 0.0205 0.0005 
737 1 0.0055543 0.0129596 0.0205001 0.0005 
646 1 0.00135662 0.0137778 0.0205 0.0005 
508 1 0.000501314 0.0130351 0.0204998 0.0005 
872 1 0.00748404 0.011329 0.02075 0.00075 
439 1 0.00690328 0.0137854 0.0212499 0.00125 
891 1 0.00673249 0.00786282 0.0205 0.0005 
427 1 0.00462036 0.00767084 0.0218637 0.0005 
1190 1 0.00496789 0.00888018 0.0217852 0.0005 
479 1 0.000500052 0.0130168 0.0215459 0.0005 
911 1 0.00444136 0.0108781 0.0219347 0.0005 
296 1 0.00353041 0.0135986 0.0222497 0.00225 
521 1 0.000527056 0.0137436 0.0222334 0.0005 
35 1 0.00781776 0.00908606 0.0216514 0.0015 
196 1 0.000518238 0.0138779 0.0210371 0.0005 
2621 1 0.00624818 0.00954506 0.0205 0.0005 
636 1 0.0119452 0.00753721 0.0205 0.0005 
611 1 0.00846502 0.0140329 0.0205 0.0005 
275 1 0.0143466 0.00808034 0.0207498 0.00075 
46 1 0.00875678 0.00725118 0.0207497 0.00075 
556 1 0.0136895 0.00947971 0.02075 0.00075 
287 1 0.0106675 0.0107215 0.0204997 0.0005 
865 1 0.0131915 0.0126963 0.0205 0.0005 
756 1 0.0115774 0.00924883 0.0215006 0.0015 
318 1 0.0133244 0.00786903 0.0218269 0.00075 
686 1 0.00947778 0.00886693 0.0205 0.0005 
10 1 0.0150732 0.00906969 0.0205 0.0005 
569 1 0.0125139 0.0107668 0.0205 0.0005 
252 1 0.0086475 0.0109292 0.0205 0.0005 
188 1 0.0149198 0.0128163 0.0214999 0.0015 
772 1 0.0125711 0.0119117 0.0205001 0.0005 
709 1 0.0096145 0.0100964 0.0207499 0.00075 
1061 1 0.0116023 0.0113923 0.0205 0.0005 
110 1 0.0136842 0.0140349 0.0205 0.0005 
1118 1 0.00953684 0.0100539 0.0219968 0.0005 
59 1 0.0118462 0.0127547 0.0205 0.0005 
974 1 0.0113898 0.013811 0.0205 0.0005 
734 1 0.0125604 0.0136873 0.0209274 0.00075 
968 1 0.012299 0.0113779 0.0215973 0.00075 
62 1 0.00983524 0.0125395 0.0219999 0.002 
1238 1 0.0101504 0.00808751 0.0205017 0.0005 
1028 1 0.0137542 0.0110425 0.02075 0.00075 
1653 1 0.0144956 0.00897896 0.0216055 0.0005 
80 1 0.015201 0.0102824 0.0213755 0.001 
810 1 0.00976848 0.00810888 0.0222011 0.00075 
1080 1 0.013762 0.0108784 0.0222409 0.00075 
1922 1 0.0159384 0.0087017 0.0208439 0.0005 
714 1 0.0158669 0.0113101 0.0205 0.0005 
192 1 0.0157188 0.00747467 0.0207503 0.00075 
2226 1 0.0133944 0.0140816 0.0217713 0.0005 
1056 1 0.0159667 0.0111975 0.0222855 0.0005 
190 1 0.0172316 0.00737702 0.02075 0.00075 
1846 1 0.0162103 0.0096005 0.0205 0.0005 
342 1 0.0169996 0.0123985 0.02075 0.00075 
319 1 0.0211273 0.00758603 0.0205 0.0005 
293 1 0.0187495 0.0109185 0.0217498 0.00175 
735 1 0.0207719 0.00994642 0.0215762 0.0005 
308 1 0.0201756 0.00869018 0.0209997 0.001 
49 1 0.0170185 0.0101895 0.0205 0.0005 
146 1 0.0193312 0.00744983 0.0205 0.0005 
578 1 0.0230001 0.00900707 0.0209998 0.001 
139 1 0.0170716 0.0141292 0.0209999 0.001 
90 1 0.0185311 0.00811831 0.0211896 0.00075 
71 1 0.0215687 0.0089443 0.0205 0.0005 
659 1 0.0174285 0.00903538 0.02075 0.00075 
967 1 0.0168771 0.0111797 0.0205 0.0005 
130 1 0.0215078 0.0115254 0.0205 0.0005 
41 1 0.0216849 0.010166 0.02075 0.00075 
231 1 0.0234998 0.0103313 0.0205 0.0005 
279 1 0.0235 0.00786334 0.0218316 0.0005 
693 1 0.0213308 0.00782816 0.0214501 0.0005 
725 1 0.0227111 0.0112753 0.02075 0.00075 
697 1 0.020463 0.0100752 0.0205 0.0005 
330 1 0.0223933 0.0127489 0.0207501 0.00075 
78 1 0.0226618 0.0139438 0.0205 0.0005 
800 1 0.0206149 0.0110636 0.0205 0.0005 
538 1 0.0234996 0.0122569 0.0210984 0.0005 
1236 1 0.0175877 0.0129206 0.0217258 0.0005 
812 1 0.0217613 0.0117737 0.0214348 0.0005 
944 1 0.023499 0.0136191 0.0214737 0.0005 
794 1 0.0166601 0.0118859 0.0218391 0.0005 
592 1 0.0180256 0.0130846 0.0205 0.0005 
910 1 0.0215687 0.00901965 0.0220063 0.00075 
523 1 0.0187479 0.0137762 0.0205 0.0005 
956 1 0.0189796 0.0127771 0.0205 0.0005 
350 1 0.0204762 0.0136601 0.0214997 0.0015 
639 1 0.0224284 0.0140937 0.0214606 0.0005 
1899 1 0.0165227 0.0109905 0.0214157 0.0005 
1138 1 0.0229291 0.0103482 0.0221216 0.00075 
272 1 0.0234994 0.0133915 0.0205 0.0005 
770 1 0.0235 0.0113827 0.0217137 0.0005 
1517 1 0.0210261 0.0110914 0.0214111 0.0005 
1498 1 0.018508 0.0132936 0.0215706 0.0005 
1575 1 0.0220683 0.00788401 0.0221593 0.0005 
782 1 0.000499903 0.0146038 0.0217244 0.0005 
70 1 0.000500135 0.0147211 0.0204999 0.0005 
888 1 0.00317891 0.0158939 0.0205 0.0005 
550 1 0.00325675 0.0170395 0.0205 0.0005 
1 1 0.00753342 0.0156469 0.0207499 0.00075 
529 1 0.0012791 0.0160969 0.0212498 0.00125 
269 1 0.00724799 0.0175683 0.0212498 0.00125 
19 1 0.00492305 0.0166497 0.0212498 0.00125 
1077 1 0.00644063 0.0162016 0.0205 0.0005 
1060 1 0.0076951 0.01519 0.0220191 0.0005 
1004 1 0.00593182 0.0192701 0.02075 0.00075 
688 1 0.000500541 0.0191807 0.0205 0.0005 
896 1 0.00718784 0.0191493 0.0205 0.0005 
1660 1 0.00544662 0.0181428 0.0205 0.0005 
972 1 0.00654186 0.0156506 0.0218753 0.00075 
223 1 0.00364019 0.0193149 0.0217498 0.00175 
700 1 0.00559858 0.020733 0.0207499 0.00075 
1416 1 0.00387193 0.0211747 0.0205 0.0005 
678 1 0.00102692 0.0204941 0.0209998 0.001 
315 1 0.00309007 0.0166259 0.0220496 0.00075 
600 1 0.00755256 0.0206935 0.0212499 0.00125 
576 1 0.000800408 0.0179923 0.0207508 0.00075 
1094 1 0.0060851 0.0189078 0.0222045 0.00075 
1884 1 0.000503543 0.018977 0.0214789 0.0005 
430 1 0.00229 0.0175138 0.0216783 0.0005 
1293 1 0.00245774 0.0209442 0.0205 0.0005 
1829 1 0.00626932 0.0167336 0.0224368 0.0005 
1578 1 0.00475027 0.0212626 0.0214998 0.0005 
436 1 0.00807853 0.0160993 0.0217798 0.0005 
43 1 0.0154954 0.0145774 0.0205 0.0005 
877 1 0.00848173 0.0193966 0.0205 0.0005 
1859 1 0.00836056 0.0189139 0.0213673 0.0005 
748 1 0.0081498 0.0143547 0.0223383 0.0005 
1682 1 0.0091803 0.0208904 0.022234 0.0005 
1570 1 0.00870302 0.0183231 0.0205 0.0005 
1144 1 0.00929647 0.0208433 0.0212378 0.0005 
1196 1 0.00901849 0.0166803 0.0224775 0.0005 
695 1 0.00873016 0.0149731 0.0213528 0.00075 
54 1 0.00926417 0.0166017 0.0209999 0.001 
786 1 0.00968568 0.01503 0.0221588 0.0005 
180 1 0.0107906 0.0189857 0.0219998 0.002 
221 1 0.0114914 0.0155825 0.0214998 0.0015 
118 1 0.0142299 0.0155299 0.0212499 0.00125 
717 1 0.0126996 0.0183872 0.0205 0.0005 
1232 1 0.00969355 0.0146828 0.0205 0.0005 
934 1 0.0139962 0.0191091 0.02075 0.00075 
1310 1 0.0135737 0.0178306 0.0205 0.0005 
1212 1 0.0148468 0.0179708 0.0205 0.0005 
624 1 0.0131291 0.0166876 0.0205 0.0005 
1035 1 0.0118799 0.017287 0.0205 0.0005 
1592 1 0.0127509 0.019386 0.0205 0.0005 
1697 1 0.00915319 0.0201432 0.0205 0.0005 
2033 1 0.013649 0.0206367 0.021441 0.0005 
1264 1 0.0114047 0.0208937 0.0204999 0.0005 
1164 1 0.0126079 0.0206655 0.02075 0.00075 
2117 1 0.0158779 0.014955 0.0213783 0.0005 
982 1 0.0147862 0.0204696 0.0205 0.0005 
1448 1 0.0127429 0.0174995 0.0209583 0.0005 
2386 1 0.014288 0.0175111 0.0215193 0.00075 
2420 1 0.0137926 0.0203265 0.0205 0.0005 
2431 1 0.0149682 0.0169751 0.0205 0.0005 
2511 1 0.0158719 0.016788 0.0210177 0.0005 
2287 1 0.0151273 0.0187188 0.0211113 0.0005 
2500 1 0.0158837 0.019383 0.021463 0.0005 
2378 1 0.0146298 0.0208303 0.021422 0.0005 
2447 1 0.0135196 0.0186613 0.0220998 0.00075 
2086 1 0.0135009 0.0168125 0.0221956 0.0005 
1311 1 0.0156785 0.0200151 0.0205 0.0005 
1601 1 0.0127406 0.0211534 0.0221717 0.00075 
2460 1 0.0158578 0.0190297 0.0205 0.0005 
2645 1 0.0158381 0.0176234 0.0216021 0.0005 
1338 1 0.0158491 0.0180246 0.0205 0.0005 
1376 1 0.00871393 0.0176071 0.022205 0.0005 
2392 1 0.0125922 0.017203 0.0219049 0.0005 
1193 1 0.0185119 0.0143015 0.0213822 0.0005 
189 1 0.0160319 0.0154378 0.0205 0.0005 
345 1 0.0186771 0.0147737 0.0205 0.0005 
741 1 0.017863 0.0149673 0.0219598 0.0005 
450 1 0.0178606 0.0154003 0.0205 0.0005 
947 1 0.0175629 0.017481 0.0205 0.0005 
591 1 0.0222128 0.0150993 0.02075 0.00075 
465 1 0.0190427 0.0162253 0.0205014 0.0005 
719 1 0.0189149 0.015478 0.0215049 0.00075 
628 1 0.0235 0.0163784 0.0204999 0.0005 
42 1 0.022267 0.016602 0.02075 0.00075 
747 1 0.0207316 0.0153734 0.0205 0.0005 
813 1 0.0200434 0.0162762 0.0205 0.0005 
787 1 0.0185641 0.0174719 0.0204999 0.0005 
492 1 0.0194997 0.0171169 0.0205 0.0005 
238 1 0.02349 0.0173887 0.0205 0.0005 
1216 1 0.0197533 0.016738 0.0216848 0.00075 
1230 1 0.0169697 0.0162432 0.02075 0.00075 
566 1 0.0206726 0.0174729 0.02075 0.00075 
1333 1 0.0210701 0.0163144 0.0205 0.0005 
1091 1 0.0196158 0.0181102 0.0205 0.0005 
1398 1 0.021223 0.0200622 0.0205 0.0005 
1189 1 0.0235 0.0143844 0.0208213 0.0005 
1427 1 0.0196276 0.015173 0.0205 0.0005 
898 1 0.0190977 0.0177328 0.0213044 0.0005 
1452 1 0.0201436 0.0192807 0.02075 0.00075 
1488 1 0.0186316 0.0188389 0.0207508 0.00075 
1124 1 0.0235 0.0153314 0.0205 0.0005 
1020 1 0.0223833 0.0187276 0.0214998 0.0015 
1401 1 0.0213502 0.0159293 0.0220802 0.001 
1298 1 0.020132 0.0156237 0.0212601 0.0005 
1170 1 0.0232463 0.0158558 0.0216066 0.00075 
1831 1 0.0174849 0.0182259 0.0212795 0.0005 
957 1 0.0234999 0.0201043 0.0205 0.0005 
1320 1 0.019378 0.0206507 0.02075 0.00075 
1598 1 0.0200907 0.020854 0.0218567 0.0005 
1437 1 0.0235001 0.0203834 0.0216028 0.0005 
1184 1 0.0235 0.0170693 0.0214475 0.0005 
1692 1 0.0199488 0.018252 0.021433 0.0005 
1828 1 0.0181224 0.0174578 0.021397 0.0005 
1202 1 0.0208085 0.020119 0.0214098 0.0005 
1460 1 0.0211673 0.0209682 0.0217983 0.0005 
1219 1 0.0224117 0.021221 0.0209999 0.001 
1984 1 0.0192197 0.0196341 0.0215153 0.0005 
1738 1 0.0174165 0.0189912 0.0205 0.0005 
1648 1 0.017167 0.0205561 0.0212499 0.00125 
2467 1 0.0168384 0.0181711 0.0205 0.0005 
1963 1 0.0188069 0.0204789 0.0218559 0.0005 
1434 1 0.0232499 0.014525 0.022298 0.00075 
1796 1 0.0202403 0.0190735 0.02199 0.0005 
1105 1 0.0208833 0.021012 0.0205 0.0005 
1865 1 0.0168195 0.0188783 0.0216584 0.0005 
1767 1 0.0210566 0.017397 0.0221856 0.0005 
1929 1 0.0203173 0.0180524 0.0223413 0.0005 
2072 1 0.0235001 0.0173409 0.0224374 0.0005 
2099 1 0.0198821 0.0153503 0.0223969 0.0005 
482 1 0.000511697 0.0218744 0.0205 0.0005 
12 1 0.00189693 0.0221046 0.02075 0.00075 
952 1 0.00570385 0.0243386 0.0205 0.0005 
904 1 0.00798784 0.0243571 0.0205 0.0005 
1439 1 0.00690941 0.0226258 0.0212357 0.00075 
831 1 0.0052048 0.0230153 0.0209999 0.001 
534 1 0.000750093 0.0230757 0.02075 0.00075 
1423 1 0.00243749 0.0253466 0.0205 0.0005 
1406 1 0.00133685 0.0252191 0.0205 0.0005 
483 1 0.000501856 0.0257767 0.0205 0.0005 
1483 1 0.00625506 0.0217765 0.0205 0.0005 
1512 1 0.00304079 0.0234047 0.0205 0.0005 
752 1 0.00555288 0.0254845 0.0205 0.0005 
1805 1 0.00339396 0.0222665 0.0208771 0.00075 
1576 1 0.000500048 0.0243593 0.0205 0.0005 
1373 1 0.00688447 0.0258076 0.0207501 0.00075 
1860 1 0.0047632 0.0216289 0.0205 0.0005 
946 1 0.00771899 0.0245315 0.0222571 0.00125 
1625 1 0.000499997 0.0218431 0.0214994 0.0005 
1455 1 0.00201623 0.0241496 0.0213033 0.001 
1942 1 0.00592506 0.0216776 0.0218683 0.00075 
991 1 0.0056002 0.0274046 0.0218705 0.00125 
1926 1 0.000499994 0.0227459 0.0219294 0.0005 
1520 1 0.00723104 0.0269705 0.0212779 0.0005 
1143 1 0.00368621 0.0281231 0.02075 0.00075 
2021 1 0.00777512 0.0266481 0.0204999 0.0005 
980 1 0.00668033 0.0272729 0.0205 0.0005 
1825 1 0.000501023 0.0241479 0.0214948 0.0005 
2481 1 0.00709891 0.0283124 0.02161 0.0005 
1650 1 0.00763217 0.0223773 0.0224151 0.0005 
2583 1 0.00390775 0.0237735 0.0210278 0.0005 
1893 1 0.000652339 0.0236371 0.0223567 0.0005 
2706 1 0.00107859 0.0255779 0.0222505 0.0005 
348 1 0.00212267 0.028277 0.0205002 0.0005 
775 1 0.00477354 0.0248665 0.0222915 0.00125 
2168 1 0.00726599 0.0264694 0.0224727 0.00075 
1081 1 0.00858441 0.025881 0.0205 0.0005 
1343 1 0.010296 0.0214137 0.02075 0.00075 
1394 1 0.00864272 0.0226758 0.0209999 0.001 
1698 1 0.00917281 0.0248297 0.0209129 0.00075 
1342 1 0.0100695 0.0239342 0.0219569 0.00075 
978 1 0.0096765 0.0258974 0.0205 0.0005 
1208 1 0.0095897 0.023726 0.0204999 0.0005 
1757 1 0.0150715 0.0215206 0.0219947 0.0005 
1577 1 0.0141173 0.0213038 0.0205 0.0005 
1350 1 0.0127485 0.0231995 0.0205 0.0005 
919 1 0.00929675 0.0277362 0.0217499 0.00175 
780 1 0.0127166 0.0256417 0.0205 0.0005 
353 1 0.0144695 0.0235696 0.0205 0.0005 
1294 1 0.011695 0.0230663 0.0205 0.0005 
1180 1 0.0113818 0.0220436 0.0205 0.0005 
1462 1 0.0106411 0.025097 0.0214533 0.0005 
1467 1 0.0119514 0.0241021 0.0205 0.0005 
1552 1 0.0123292 0.0223094 0.0212709 0.00075 
1602 1 0.0108073 0.0260688 0.0205 0.0005 
1621 1 0.0120126 0.0252664 0.0214623 0.00075 
861 1 0.0140254 0.0247378 0.0207519 0.00075 
1643 1 0.0113143 0.0248791 0.0205 0.0005 
1539 1 0.0128003 0.0246379 0.0205 0.0005 
1330 1 0.0138629 0.0236238 0.0212952 0.0005 
1192 1 0.014698 0.0261095 0.0204998 0.0005 
1614 1 0.0104871 0.0229018 0.0207788 0.00075 
1693 1 0.0150381 0.0227469 0.0205 0.0005 
1618 1 0.0104929 0.0241566 0.0205 0.0005 
1221 1 0.0137526 0.0224946 0.02075 0.00075 
1915 1 0.0136714 0.0259394 0.0205 0.0005 
1869 1 0.0103385 0.0251471 0.0205002 0.0005 
1655 1 0.0104913 0.0219483 0.0224086 0.001 
2193 1 0.0111821 0.0274301 0.0205 0.0005 
2263 1 0.0140016 0.0260124 0.021441 0.0005 
2270 1 0.0127526 0.0272263 0.0212499 0.00125 
1753 1 0.0148501 0.0238984 0.021366 0.0005 
862 1 0.0149154 0.0273448 0.0205 0.0005 
1775 1 0.0145768 0.0223612 0.021684 0.0005 
2004 1 0.0146522 0.0267513 0.021265 0.0005 
1958 1 0.0143613 0.0274722 0.0218937 0.0005 
2243 1 0.0158547 0.0270918 0.0212868 0.00075 
1017 1 0.0153799 0.0215705 0.02075 0.00075 
2348 1 0.0145615 0.023224 0.022207 0.0005 
1955 1 0.0152074 0.0261978 0.0218878 0.0005 
144 1 0.0157194 0.0251006 0.0209999 0.001 
1563 1 0.0155078 0.023694 0.0205 0.0005 
2594 1 0.0138042 0.0217576 0.0219127 0.0005 
2603 1 0.0113475 0.0230763 0.0216705 0.0005 
2121 1 0.00927096 0.025486 0.0219741 0.0005 
2261 1 0.0153943 0.0277843 0.022349 0.0005 
2026 1 0.0114061 0.0272546 0.0223672 0.0005 
2662 1 0.0132392 0.0226727 0.0221768 0.0005 
1876 1 0.0156603 0.0244051 0.0223276 0.0005 
1794 1 0.0159689 0.0229269 0.0217134 0.001 
2201 1 0.0116693 0.0243424 0.0222968 0.0005 
2403 1 0.0116783 0.0283007 0.0224894 0.0005 
152 1 0.0212458 0.0237521 0.0205002 0.0005 
1292 1 0.0170143 0.0239499 0.02075 0.00075 
512 1 0.0192751 0.0265344 0.0205 0.0005 
1288 1 0.0165058 0.0220661 0.0205 0.0005 
1048 1 0.0183466 0.0221222 0.02075 0.00075 
1415 1 0.0219392 0.0225539 0.0205 0.0005 
1087 1 0.0235 0.0254682 0.0205 0.0005 
1176 1 0.0182657 0.0257593 0.02075 0.00075 
1269 1 0.0232489 0.0227653 0.02075 0.00075 
1507 1 0.0234991 0.024866 0.0218189 0.0005 
1574 1 0.0234996 0.0265439 0.0205 0.0005 
1472 1 0.0232449 0.0242701 0.02075 0.00075 
1590 1 0.022158 0.0250293 0.0205 0.0005 
1634 1 0.0186608 0.0237132 0.02075 0.00075 
908 1 0.0222677 0.0234983 0.0205 0.0005 
1646 1 0.0172679 0.0227198 0.0205 0.0005 
1927 1 0.0166911 0.0265975 0.0205 0.0005 
1897 1 0.0177146 0.0230608 0.0217346 0.00075 
1370 1 0.0231341 0.0277155 0.02075 0.00075 
1243 1 0.020235 0.0249857 0.0212497 0.00125 
1978 1 0.0170224 0.0256538 0.0205 0.0005 
1881 1 0.0166918 0.0244191 0.0219165 0.0005 
1514 1 0.0203026 0.0224826 0.0212499 0.00125 
1925 1 0.02191 0.0242422 0.0210648 0.0005 
1768 1 0.0162804 0.027965 0.0205001 0.0005 
1527 1 0.0179475 0.0246415 0.021699 0.00075 
1106 1 0.0178667 0.0276553 0.0212499 0.00125 
1323 1 0.019395 0.0280637 0.0205002 0.0005 
1090 1 0.0223575 0.026194 0.0217908 0.00125 
1837 1 0.0163569 0.0278964 0.0221016 0.0005 
1015 1 0.0217686 0.0273426 0.0205 0.0005 
1974 1 0.0234983 0.0280014 0.0219117 0.0005 
1267 1 0.020428 0.0272379 0.0212092 0.001 
2065 1 0.0187416 0.0237232 0.0219974 0.0005 
1758 1 0.0167486 0.0260821 0.022406 0.001 
2303 1 0.0186125 0.0219508 0.0222242 0.00075 
1910 1 0.0193161 0.027421 0.0222056 0.0005 
1755 1 0.0160485 0.0215006 0.0222089 0.0005 
1480 1 0.00658189 0.0290721 0.02075 0.00075 
1103 1 0.00518715 0.0293475 0.0205 0.0005 
138 1 0.00781933 0.0292338 0.0205 0.0005 
162 1 0.000536918 0.0325923 0.0205 0.0005 
259 1 0.00335265 0.0324828 0.0205 0.0005 
522 1 0.00115463 0.0339223 0.02075 0.00075 
337 1 0.00327875 0.0312602 0.02075 0.00075 
638 1 0.00438425 0.0331427 0.02075 0.00075 
506 1 0.000506048 0.0348695 0.0215073 0.0005 
1084 1 0.00130951 0.0307391 0.02075 0.00075 
1355 1 0.00236807 0.0337079 0.0205 0.0005 
1451 1 0.0041709 0.0292634 0.0205 0.0005 
412 1 0.00193271 0.0323381 0.0210936 0.001 
1285 1 0.000753259 0.0284046 0.02075 0.00075 
1607 1 0.00152302 0.0295095 0.0205 0.0005 
1529 1 0.00507225 0.0346493 0.02075 0.00075 
1290 1 0.000507841 0.0297317 0.0205 0.0005 
1449 1 0.00273455 0.029092 0.0205 0.0005 
1761 1 0.00592921 0.0337362 0.0205 0.0005 
1760 1 0.00316492 0.0333396 0.0209806 0.0005 
1611 1 0.00487593 0.0338442 0.0216858 0.0005 
2278 1 0.00236469 0.0300564 0.0205527 0.0005 
2244 1 0.00181063 0.0287792 0.0213071 0.0005 
2306 1 0.00566875 0.0320014 0.0207498 0.00075 
2343 1 0.00590698 0.0304956 0.0205007 0.0005 
2387 1 0.00695238 0.0327774 0.02075 0.00075 
2407 1 0.00457311 0.0313991 0.0205 0.0005 
2421 1 0.00554292 0.0331586 0.0212191 0.0005 
2423 1 0.00562392 0.0294044 0.0218553 0.00075 
2493 1 0.00714377 0.0340767 0.0218565 0.0005 
672 1 0.00682987 0.0345662 0.02075 0.00075 
2537 1 0.00396057 0.0302425 0.0205 0.0005 
1872 1 0.00745951 0.0308017 0.0212502 0.00125 
1792 1 0.00430728 0.0319806 0.0217785 0.00075 
2484 1 0.00571989 0.0321118 0.0219937 0.0005 
2573 1 0.00518381 0.0307918 0.0214925 0.00075 
2427 1 0.00439488 0.0288507 0.0214786 0.0005 
1702 1 0.000555142 0.0291325 0.0217614 0.0005 
1993 1 0.00244502 0.0296302 0.0220087 0.00075 
2455 1 0.00764421 0.0324038 0.0219315 0.0005 
2622 1 0.00640244 0.0329402 0.0218606 0.0005 
1291 1 0.000777643 0.0338709 0.0222179 0.00075 
2548 1 0.00307525 0.0317766 0.0218892 0.0005 
2570 1 0.00529923 0.033003 0.022217 0.0005 
897 1 0.000500805 0.0349637 0.0205 0.0005 
1168 1 0.00322876 0.0330066 0.0221838 0.00075 
2337 1 0.00779018 0.0333484 0.0216249 0.0005 
2449 1 0.00735717 0.0287947 0.0224594 0.0005 
1987 1 0.0146745 0.0284106 0.022047 0.0005 
1870 1 0.014492 0.0284928 0.0207554 0.00075 
1935 1 0.0111714 0.02843 0.0205 0.0005 
2301 1 0.0134275 0.0286715 0.0224564 0.00075 
2393 1 0.0114559 0.0283855 0.0214576 0.0005 
505 1 0.00896456 0.0303177 0.0205 0.0005 
886 1 0.00967775 0.0310185 0.0204998 0.0005 
1249 1 0.0136713 0.0328223 0.0207499 0.00075 
1154 1 0.011111 0.0326376 0.0205079 0.0005 
609 1 0.0123217 0.032577 0.0205 0.0005 
1134 1 0.0085545 0.0325114 0.02075 0.00075 
1340 1 0.0117517 0.0334911 0.0205 0.0005 
1678 1 0.0127231 0.0337549 0.0205 0.0005 
1703 1 0.0108088 0.0316837 0.0205 0.0005 
1095 1 0.0136994 0.0340467 0.0205 0.0005 
1167 1 0.0145413 0.0353513 0.0205 0.0005 
1815 1 0.00976844 0.0320149 0.0205 0.0005 
1348 1 0.0131325 0.0300162 0.0205 0.0005 
1594 1 0.0140772 0.0351887 0.0213794 0.0005 
2043 1 0.0106707 0.0295378 0.0205 0.0005 
1867 1 0.00901727 0.0335554 0.0217989 0.00075 
1793 1 0.0143846 0.0295971 0.0217653 0.00075 
2242 1 0.0121042 0.0311147 0.0209997 0.001 
2245 1 0.0103424 0.0311367 0.0215515 0.00075 
2266 1 0.0133119 0.0288172 0.0205 0.0005 
1954 1 0.0106639 0.0305417 0.0205 0.0005 
924 1 0.0119528 0.0349727 0.0205 0.0005 
1762 1 0.00914325 0.0315676 0.0213377 0.0005 
640 1 0.0100904 0.0333069 0.0207784 0.00075 
2323 1 0.0133262 0.0349744 0.0205 0.0005 
2362 1 0.0140772 0.0296686 0.0205 0.0005 
2347 1 0.012638 0.0346431 0.0211495 0.0005 
1361 1 0.0154107 0.0300052 0.0207501 0.00075 
2202 1 0.0141051 0.0311456 0.0209999 0.001 
2451 1 0.0121384 0.0292041 0.0207499 0.00075 
1083 1 0.0152826 0.0339254 0.0212499 0.00125 
835 1 0.00879582 0.0341669 0.0205 0.0005 
2305 1 0.0154126 0.0313563 0.0217931 0.0005 
2225 1 0.0097641 0.0299135 0.0209446 0.0005 
2408 1 0.0135501 0.0343401 0.0214442 0.0005 
2304 1 0.0112347 0.0343756 0.0216844 0.001 
2444 1 0.0131183 0.0353978 0.0216016 0.0005 
2574 1 0.0132336 0.0294181 0.0213125 0.0005 
698 1 0.0156089 0.0320164 0.0207499 0.00075 
2317 1 0.0111783 0.0297081 0.0221234 0.001 
2404 1 0.0127172 0.0334465 0.0217246 0.00075 
1854 1 0.015768 0.0289425 0.0217527 0.00075 
960 1 0.00860366 0.0354203 0.02075 0.00075 
2390 1 0.00849854 0.0318892 0.0221448 0.0005 
2376 1 0.0138558 0.0345995 0.0223604 0.0005 
2252 1 0.0126559 0.0319793 0.0220943 0.0005 
2577 1 0.0116573 0.0326566 0.0213651 0.0005 
2505 1 0.0127173 0.0300631 0.0218761 0.0005 
2439 1 0.0158018 0.0323965 0.021925 0.0005 
2247 1 0.0128676 0.0346079 0.0221616 0.0005 
1786 1 0.0156752 0.0288076 0.0205 0.0005 
2469 1 0.00992094 0.0352695 0.0207861 0.0005 
2297 1 0.0140166 0.0325121 0.0224591 0.001 
2412 1 0.0124191 0.0308743 0.022449 0.0005 
1409 1 0.0166722 0.028885 0.0205 0.0005 
1113 1 0.0176774 0.0295838 0.0207521 0.00075 
1044 1 0.0198392 0.0295817 0.0212499 0.00125 
557 1 0.0198011 0.0337243 0.0212512 0.00125 
304 1 0.0224749 0.030998 0.0204992 0.0005 
1142 1 0.0219654 0.0345255 0.0205123 0.0005 
1335 1 0.017512 0.0330287 0.0205 0.0005 
1414 1 0.0234905 0.0352786 0.0205 0.0005 
1016 1 0.0231942 0.0320728 0.0207495 0.00075 
1531 1 0.0182106 0.0337449 0.0205 0.0005 
1329 1 0.0235 0.028886 0.0205 0.0005 
1318 1 0.0188684 0.0324475 0.0205 0.0005 
1305 1 0.0184127 0.0308912 0.0207499 0.00075 
1258 1 0.0235 0.0298859 0.0205 0.0005 
1695 1 0.0180813 0.0351532 0.0209999 0.001 
1224 1 0.0169641 0.0313754 0.0208023 0.00075 
878 1 0.0232424 0.0335719 0.0207518 0.00075 
1213 1 0.0197414 0.0315875 0.0207499 0.00075 
1447 1 0.016354 0.0304601 0.0218238 0.00075 
1603 1 0.0166182 0.0302129 0.0205 0.0005 
1403 1 0.0177018 0.0305201 0.0217441 0.0005 
1445 1 0.0234999 0.0308863 0.0205 0.0005 
1362 1 0.0232404 0.0302171 0.0216771 0.00075 
1442 1 0.0182197 0.0292672 0.0218326 0.0005 
1626 1 0.0179238 0.0321172 0.0205 0.0005 
1534 1 0.0220367 0.0298518 0.02075 0.00075 
1579 1 0.0216956 0.0333246 0.02075 0.00075 
1468 1 0.0181761 0.0321086 0.0223187 0.00125 
1227 1 0.0172505 0.0336951 0.021525 0.00075 
1812 1 0.0234976 0.0290076 0.0214925 0.0005 
2044 1 0.0165512 0.0328398 0.0207043 0.0005 
959 1 0.0194898 0.035288 0.0205 0.0005 
2008 1 0.0190579 0.028406 0.0222899 0.0005 
1699 1 0.0234759 0.0323523 0.021939 0.0005 
2478 1 0.0167428 0.0349531 0.0216683 0.0005 
2311 1 0.019574 0.0310511 0.0221831 0.0005 
809 1 0.0215077 0.0315728 0.0221516 0.0015 
1420 1 0.0218668 0.0285871 0.0223217 0.00125 
1073 1 0.00596189 0.0370763 0.02075 0.00075 
249 1 0.00281121 0.0357293 0.0219998 0.002 
535 1 0.000516175 0.0359653 0.0205 0.0005 
844 1 0.00472256 0.0373749 0.0205 0.0005 
366 1 0.00231238 0.0379142 0.0205 0.0005 
680 1 0.00361755 0.0380428 0.0207501 0.00075 
733 1 0.0021718 0.040811 0.0205 0.0005 
1108 1 0.000753802 0.0398092 0.02075 0.00075 
316 1 0.000502948 0.0369652 0.0205 0.0005 
1276 1 0.00254639 0.0394036 0.0210034 0.001 
91 1 0.00660357 0.0412754 0.02075 0.00075 
2422 1 0.000610082 0.0413528 0.0205 0.0005 
2458 1 0.00419029 0.0391436 0.0205003 0.0005 
1177 1 0.00408779 0.0410534 0.0212499 0.00125 
2542 1 0.00532969 0.039433 0.0209273 0.00075 
457 1 0.0010032 0.0381562 0.0212687 0.001 
451 1 0.00129912 0.0423653 0.02075 0.00075 
2629 1 0.00610739 0.0404443 0.0220354 0.0005 
2527 1 0.00711534 0.0406751 0.0218131 0.0005 
2428 1 0.00774627 0.0425166 0.0223987 0.0005 
2634 1 0.00585965 0.036438 0.02228 0.0005 
2713 1 0.00573975 0.0390227 0.0223828 0.0005 
2553 1 0.00181571 0.0410145 0.0223423 0.0005 
1679 1 0.00740024 0.0425115 0.0210482 0.00075 
1568 1 0.00305081 0.038249 0.0223237 0.0005 
471 1 0.0105379 0.0391653 0.0212499 0.00125 
2018 1 0.00870401 0.0424709 0.0221049 0.0005 
1353 1 0.0102506 0.0416669 0.0205 0.0005 
1419 1 0.0127223 0.0376837 0.0207499 0.00075 
1019 1 0.0135889 0.0386146 0.0205 0.0005 
1043 1 0.0145277 0.0408538 0.0209999 0.001 
1107 1 0.0109758 0.0364501 0.02075 0.00075 
901 1 0.0113272 0.0409336 0.02075 0.00075 
1149 1 0.0136159 0.0361656 0.02075 0.00075 
1482 1 0.0122904 0.0421748 0.02075 0.00075 
1265 1 0.014102 0.0394928 0.0205021 0.0005 
1705 1 0.0146899 0.038684 0.0204998 0.0005 
1716 1 0.0155286 0.0424736 0.0205 0.0005 
912 1 0.00884933 0.041435 0.0209999 0.001 
1346 1 0.0128072 0.0406556 0.02075 0.00075 
1743 1 0.0159061 0.0394048 0.0210001 0.001 
1661 1 0.0141935 0.0421361 0.0217029 0.0005 
1181 1 0.0142165 0.0375549 0.0207502 0.00075 
1802 1 0.0152671 0.0380627 0.0212051 0.0005 
2083 1 0.0137888 0.0396287 0.0214506 0.0005 
2003 1 0.0125009 0.0391872 0.0207501 0.00075 
2194 1 0.0146007 0.038847 0.0214867 0.0005 
2275 1 0.0126972 0.0366622 0.0218482 0.00075 
2389 1 0.0113219 0.0377924 0.0204998 0.0005 
2032 1 0.0154776 0.0403784 0.0223905 0.00075 
2452 1 0.0121569 0.0355131 0.0213236 0.0005 
2454 1 0.0146575 0.0379869 0.0219952 0.0005 
2284 1 0.00938475 0.0363878 0.0205 0.0005 
2416 1 0.0116654 0.037475 0.0213836 0.0005 
2499 1 0.0110645 0.0419849 0.0213847 0.0005 
2510 1 0.0127704 0.0399531 0.0220996 0.00075 
2516 1 0.0108986 0.0424414 0.0205 0.0005 
2535 1 0.0121312 0.0410488 0.021729 0.0005 
2094 1 0.0134461 0.0384783 0.0218011 0.00075 
2488 1 0.0103311 0.0412316 0.0214475 0.0005 