ITEM: TIMESTEP
400000
ITEM: NUMBER OF ATOMS
3131
ITEM: BOX BOUNDS mm mm mm
-2.4e-06 0.0240024
-7.8e-06 0.0780078
-3e-06 0.030003
ITEM: ATOMS id type x y z radius 
291 1 0.00379389 0.00203063 0.0214999 0.0015 
368 1 0.000500856 0.00167931 0.0204997 0.0005 
784 1 0.00585487 0.0039201 0.0207499 0.00075 
32 1 0.00567858 0.000707731 0.0205 0.0005 
241 1 0.00536246 0.00278294 0.0205 0.0005 
815 1 0.00294559 0.000500617 0.0205 0.0005 
448 1 0.00452148 0.00361515 0.0205 0.0005 
300 1 0.000501496 0.000511383 0.0205 0.0005 
442 1 0.00144617 0.0027305 0.0210001 0.001 
816 1 0.00643565 0.00533586 0.0205 0.0005 
710 1 0.00469783 0.000512449 0.0205 0.0005 
527 1 0.000509565 0.00482189 0.0205 0.0005 
100 1 0.00595128 0.00310742 0.0217132 0.0005 
153 1 0.00552596 0.00178831 0.0205 0.0005 
722 1 0.00185619 0.00606289 0.0205061 0.0005 
864 1 0.00625248 0.00144916 0.0210976 0.0005 
503 1 0.000508582 0.00381117 0.0205 0.0005 
561 1 0.00658856 0.00261213 0.02075 0.00075 
501 1 0.00669451 0.000626549 0.0214912 0.0005 
64 1 0.00677637 0.0068951 0.0209999 0.001 
954 1 0.00665676 0.000499993 0.0205 0.0005 
587 1 0.000507717 0.00122753 0.0213916 0.0005 
370 1 0.00766788 0.00157094 0.0207495 0.00075 
28 1 0.00183306 0.00101613 0.0207499 0.00075 
220 1 0.00786077 0.000749388 0.0219887 0.00075 
2736 1 0.00225556 0.0039379 0.0205 0.0005 
998 1 0.000750189 0.00644028 0.0209957 0.00075 
842 1 0.00665725 0.00636124 0.0223964 0.0005 
2924 1 0.00181834 0.00483971 0.0205001 0.0005 
390 1 0.00234445 0.00340214 0.0220364 0.0005 
151 1 0.00138081 0.000749733 0.0221548 0.00075 
1778 1 0.00153025 0.0070112 0.0219768 0.0005 
486 1 0.00398615 0.00572467 0.0222498 0.00225 
2921 1 0.000499466 0.00162176 0.0223104 0.0005 
1816 1 0.000556979 0.00621219 0.02221 0.0005 
2929 1 0.00089492 0.00385566 0.0222226 0.00075 
463 1 0.00584714 0.00371291 0.0225027 0.0005 
307 1 0.00847649 0.00249044 0.0204997 0.0005 
870 1 0.00817486 0.00663204 0.0205 0.0005 
324 1 0.00825182 0.00447737 0.0219998 0.002 
1195 1 0.00871227 0.00197184 0.0213234 0.0005 
121 1 0.00915396 0.006428 0.0205 0.0005 
228 1 0.00983683 0.00569767 0.0205 0.0005 
490 1 0.0102291 0.00477806 0.0205 0.0005 
199 1 0.0117897 0.00360502 0.0204999 0.0005 
395 1 0.0108198 0.00299977 0.0204999 0.0005 
474 1 0.0140188 0.00193221 0.0207497 0.00075 
282 1 0.0105623 0.00163227 0.0204997 0.0005 
590 1 0.00972421 0.000500052 0.0205 0.0005 
176 1 0.0137642 0.000500114 0.0205 0.0005 
289 1 0.0116114 0.000502061 0.0205 0.0005 
362 1 0.00852888 0.000508788 0.0205 0.0005 
783 1 0.0111395 0.00436452 0.0204999 0.0005 
51 1 0.0133775 0.00309628 0.0205 0.0005 
233 1 0.00970085 0.00250234 0.0207502 0.00075 
217 1 0.0111034 0.00536368 0.0204999 0.0005 
549 1 0.0105961 0.00517643 0.0213411 0.0005 
126 1 0.0127997 0.00501209 0.0214997 0.0015 
676 1 0.0105746 0.000749814 0.0213845 0.00075 
209 1 0.0140666 0.006193 0.0204998 0.0005 
730 1 0.00907869 0.00139661 0.0205 0.0005 
764 1 0.0108374 0.0069221 0.0212499 0.00125 
311 1 0.014638 0.00677036 0.0217606 0.001 
763 1 0.0101316 0.00378262 0.0205 0.0005 
66 1 0.0145332 0.00500566 0.0205 0.0005 
61 1 0.0150188 0.00588102 0.0205 0.0005 
108 1 0.015115 0.00352825 0.0212499 0.00125 
89 1 0.00914699 0.000500175 0.0213166 0.0005 
155 1 0.0120863 0.00205226 0.02125 0.00125 
178 1 0.0149752 0.000749932 0.0207499 0.00075 
364 1 0.0108506 0.00371249 0.0215263 0.00075 
895 1 0.0116669 0.000499796 0.0219396 0.0005 
598 1 0.0128702 0.00050009 0.0209511 0.0005 
161 1 0.0232504 0.000749875 0.0207498 0.00075 
159 1 0.0229151 0.00342758 0.0204998 0.0005 
204 1 0.0235001 0.0055213 0.0204998 0.0005 
219 1 0.0215369 0.000999758 0.0209996 0.001 
333 1 0.0232501 0.00446255 0.0211151 0.00075 
142 1 0.02325 0.00224973 0.0207501 0.00075 
200 1 0.0202507 0.00299177 0.02075 0.00075 
340 1 0.0215952 0.00458661 0.02075 0.00075 
452 1 0.0235 0.00661831 0.0205 0.0005 
518 1 0.0197538 0.00074997 0.0207499 0.00075 
185 1 0.0165699 0.00556106 0.0212498 0.00125 
31 1 0.0169594 0.00149995 0.0214999 0.0015 
123 1 0.0229214 0.00105025 0.022442 0.001 
273 1 0.0218539 0.00301561 0.0214764 0.001 
113 1 0.0170021 0.00336121 0.0205 0.0005 
544 1 0.018933 0.00421837 0.0209999 0.001 
577 1 0.0232499 0.0060688 0.0215951 0.00075 
652 1 0.0183165 0.00549448 0.0214938 0.0005 
290 1 0.0188408 0.00247978 0.02075 0.00075 
281 1 0.0204803 0.00405043 0.0217999 0.00075 
57 1 0.0203078 0.00627361 0.0214997 0.0015 
143 1 0.0223214 0.00610323 0.0205 0.0005 
853 1 0.0182404 0.00557481 0.0205 0.0005 
106 1 0.0221524 0.00550953 0.0213826 0.0005 
1012 1 0.0181183 0.00671436 0.0217716 0.00075 
109 1 0.0185915 0.0065862 0.0205 0.0005 
380 1 0.00542256 0.00730418 0.0205 0.0005 
256 1 0.00150306 0.00879862 0.0205023 0.0005 
75 1 0.0022731 0.00784143 0.0207501 0.00075 
887 1 0.00705908 0.00782419 0.0221459 0.0005 
1359 1 0.00352051 0.00818649 0.0205 0.0005 
588 1 0.00450025 0.0079091 0.0205 0.0005 
360 1 0.00678487 0.0127011 0.0205 0.0005 
154 1 0.00524305 0.0094437 0.02075 0.00075 
13 1 0.000499968 0.00881711 0.0205 0.0005 
879 1 0.00563144 0.00828213 0.0205 0.0005 
137 1 0.000990543 0.00968846 0.0205 0.0005 
44 1 0.0052585 0.0109449 0.02075 0.00075 
1166 1 0.00591778 0.00827797 0.0217189 0.00075 
1234 1 0.00586006 0.00959579 0.0218299 0.0005 
323 1 0.00291918 0.0102183 0.0219998 0.002 
820 1 0.000975196 0.0106883 0.0204999 0.0005 
1067 1 0.00776152 0.0129289 0.0205 0.0005 
713 1 0.00287684 0.012292 0.0205 0.0005 
881 1 0.000499894 0.011568 0.0204999 0.0005 
943 1 0.00412173 0.011823 0.0205 0.0005 
673 1 0.00541774 0.0124365 0.02075 0.00075 
174 1 0.0014152 0.0126459 0.0209999 0.001 
447 1 0.00621891 0.0101841 0.0205002 0.0005 
737 1 0.0058044 0.0135986 0.0205 0.0005 
508 1 0.000499918 0.0137237 0.0204999 0.0005 
872 1 0.00771836 0.0116817 0.02075 0.00075 
891 1 0.00663132 0.00830188 0.0205 0.0005 
1190 1 0.0054079 0.0104352 0.0221335 0.0005 
479 1 0.000500247 0.0137305 0.0215011 0.0005 
911 1 0.00490299 0.0117366 0.0216499 0.0005 
35 1 0.00783225 0.00955173 0.0214996 0.0015 
2621 1 0.00636692 0.0115385 0.0205 0.0005 
1032 1 0.00618203 0.0106804 0.0215496 0.0005 
1085 1 0.000750256 0.0118589 0.0224145 0.00075 
742 1 0.00050211 0.010417 0.0213384 0.0005 
274 1 0.00784943 0.00781706 0.0205 0.0005 
427 1 0.00470853 0.00842744 0.0220808 0.0005 
1407 1 0.000753197 0.00790549 0.0213168 0.00075 
401 1 0.00661163 0.0121916 0.0223357 0.00125 
1617 1 0.00184677 0.00796031 0.0219197 0.0005 
2240 1 0.00188165 0.0125034 0.0224184 0.0005 
1492 1 0.000501104 0.00723895 0.0223438 0.0005 
581 1 0.0126366 0.00717981 0.022101 0.00075 
171 1 0.0132859 0.00723196 0.0207499 0.00075 
1070 1 0.00821485 0.00730005 0.0219104 0.00075 
636 1 0.0121813 0.00777387 0.0205 0.0005 
275 1 0.0147043 0.00825722 0.02075 0.00075 
46 1 0.00907028 0.0077141 0.0207499 0.00075 
556 1 0.0138475 0.00948841 0.02075 0.00075 
287 1 0.0108421 0.011044 0.0205 0.0005 
865 1 0.0136483 0.0122014 0.0204999 0.0005 
756 1 0.011727 0.00951183 0.021502 0.0015 
318 1 0.0135994 0.00829198 0.0217638 0.00075 
686 1 0.00946828 0.00896815 0.0205 0.0005 
10 1 0.0156988 0.00897842 0.0205 0.0005 
569 1 0.0125898 0.011013 0.0205001 0.0005 
252 1 0.00875721 0.0110329 0.0205 0.0005 
188 1 0.0150246 0.0132522 0.0215004 0.0015 
772 1 0.0126666 0.012011 0.0205 0.0005 
709 1 0.00978932 0.0103734 0.02075 0.00075 
1061 1 0.0117245 0.0115177 0.0205 0.0005 
1118 1 0.00960184 0.010348 0.0219855 0.0005 
59 1 0.0118767 0.0126256 0.0205003 0.0005 
974 1 0.0117285 0.0136373 0.0205001 0.0005 
734 1 0.0129039 0.0132931 0.02075 0.00075 
968 1 0.0123605 0.0116649 0.0216614 0.00075 
62 1 0.00988597 0.0128333 0.0219996 0.002 
1238 1 0.0103052 0.00841922 0.0205 0.0005 
1028 1 0.0138145 0.010988 0.02075 0.00075 
1653 1 0.0146381 0.00956526 0.0217151 0.0005 
80 1 0.0154951 0.0105689 0.0209999 0.001 
810 1 0.00959583 0.0082688 0.0220523 0.00075 
1080 1 0.0139082 0.011419 0.0221837 0.00075 
192 1 0.015926 0.00738702 0.0207495 0.00075 
1883 1 0.0150198 0.0105968 0.0224224 0.0005 
1056 1 0.0159367 0.0115366 0.0220575 0.0005 
624 1 0.0122755 0.0141537 0.0222127 0.0005 
938 1 0.00959495 0.00945715 0.0224397 0.0005 
714 1 0.0161079 0.0118437 0.0205 0.0005 
1922 1 0.0165527 0.00845804 0.0205 0.0005 
6 1 0.022414 0.0075286 0.0209999 0.001 
190 1 0.0174382 0.00757647 0.0207499 0.00075 
1846 1 0.0166581 0.00945296 0.0205 0.0005 
342 1 0.0170607 0.0126583 0.0207499 0.00075 
319 1 0.0210357 0.00784536 0.0204999 0.0005 
293 1 0.0188917 0.0112692 0.0217497 0.00175 
735 1 0.0208287 0.0101459 0.0215313 0.0005 
308 1 0.0201288 0.00893042 0.0209998 0.001 
49 1 0.017277 0.0102445 0.0205 0.0005 
146 1 0.019375 0.0077331 0.0205 0.0005 
578 1 0.0230001 0.00944077 0.0209998 0.001 
90 1 0.0186547 0.00810259 0.0214523 0.00075 
71 1 0.0216395 0.00874387 0.0205 0.0005 
659 1 0.0178827 0.00918 0.02075 0.00075 
967 1 0.0170165 0.0112099 0.0205 0.0005 
130 1 0.0209768 0.012403 0.0205 0.0005 
41 1 0.0216908 0.0106023 0.0207499 0.00075 
231 1 0.0234999 0.0108075 0.0205 0.0005 
279 1 0.0235 0.00824582 0.0217562 0.0005 
693 1 0.0211738 0.00807042 0.0216466 0.0005 
725 1 0.0226865 0.011724 0.0207499 0.00075 
697 1 0.0204916 0.0102974 0.0205 0.0005 
330 1 0.0223781 0.0131919 0.0207498 0.00075 
800 1 0.0207583 0.0113964 0.0205 0.0005 
538 1 0.0234888 0.0126728 0.0205 0.0005 
1236 1 0.0178494 0.0136011 0.022192 0.0005 
812 1 0.0215152 0.0125087 0.0213425 0.0005 
944 1 0.0235001 0.0139227 0.0214705 0.0005 
794 1 0.0169882 0.0131958 0.0218765 0.0005 
592 1 0.0182309 0.0130191 0.0204997 0.0005 
910 1 0.0215571 0.00922822 0.0219666 0.00075 
523 1 0.0188067 0.0141768 0.0204998 0.0005 
956 1 0.0192289 0.0131097 0.0205 0.0005 
1899 1 0.0166356 0.0116319 0.0213227 0.0005 
1138 1 0.0225643 0.0108403 0.0219557 0.00075 
272 1 0.0235001 0.0136827 0.0204999 0.0005 
770 1 0.0235 0.0116981 0.0216985 0.0005 
1517 1 0.0211973 0.0115615 0.0213831 0.0005 
1498 1 0.0186805 0.0135173 0.0212406 0.0005 
1575 1 0.0218663 0.00808569 0.0223683 0.0005 
2494 1 0.0188397 0.0134673 0.0222262 0.0005 
296 1 0.00379815 0.0144684 0.0222498 0.00225 
646 1 0.00135573 0.0143586 0.0205 0.0005 
521 1 0.00108722 0.0145 0.0217895 0.0005 
439 1 0.00715298 0.0144287 0.0212499 0.00125 
196 1 0.000499926 0.0145974 0.0209862 0.0005 
782 1 0.000499991 0.0153352 0.0216612 0.0005 
70 1 0.000499945 0.0154711 0.0204999 0.0005 
888 1 0.00329919 0.0165414 0.0205 0.0005 
550 1 0.00276235 0.0173857 0.0205 0.0005 
1 1 0.00773267 0.0165093 0.0207512 0.00075 
529 1 0.00127064 0.0168515 0.0212499 0.00125 
269 1 0.00698621 0.0185668 0.0212499 0.00125 
19 1 0.00462709 0.0177182 0.0212495 0.00125 
1077 1 0.00613433 0.0172317 0.0205 0.0005 
1004 1 0.00594351 0.0201987 0.0207499 0.00075 
688 1 0.000499993 0.0204539 0.0205 0.0005 
896 1 0.00682414 0.021299 0.0205 0.0005 
1660 1 0.00504884 0.019246 0.0205 0.0005 
972 1 0.00596813 0.0160668 0.0209239 0.00075 
223 1 0.00367137 0.0205173 0.0217514 0.00175 
315 1 0.00270415 0.0182327 0.0214433 0.00075 
576 1 0.000750054 0.018718 0.02075 0.00075 
1094 1 0.0061278 0.0202261 0.0222382 0.00075 
1884 1 0.000509962 0.0201575 0.021455 0.0005 
430 1 0.00196945 0.0186006 0.0205 0.0005 
1829 1 0.00617992 0.017107 0.0217807 0.0005 
1388 1 0.000749979 0.0209169 0.0225061 0.00075 
1696 1 0.00629914 0.0156167 0.0222105 0.0005 
1613 1 0.00276024 0.0170188 0.0221557 0.0005 
1859 1 0.00745397 0.020124 0.0205 0.0005 
436 1 0.00684014 0.0163561 0.0218112 0.0005 
611 1 0.00903636 0.0147007 0.0205 0.0005 
110 1 0.0139978 0.0147505 0.0205 0.0005 
2226 1 0.0130625 0.0145337 0.0207809 0.0005 
877 1 0.0103698 0.0199239 0.0205 0.0005 
1570 1 0.0083241 0.0194099 0.0205 0.0005 
695 1 0.00800373 0.0160654 0.0221643 0.00075 
54 1 0.00875407 0.0176664 0.0223226 0.001 
118 1 0.0150044 0.0159907 0.0212498 0.00125 
717 1 0.0119078 0.0187931 0.0205 0.0005 
1232 1 0.0113106 0.0145702 0.0205 0.0005 
934 1 0.0131216 0.0194551 0.0207504 0.00075 
1310 1 0.0131813 0.0173503 0.0205 0.0005 
1212 1 0.0148266 0.0185211 0.0205 0.0005 
1035 1 0.0118631 0.0177937 0.0205022 0.0005 
1592 1 0.0119594 0.0198463 0.0205 0.0005 
1697 1 0.0100746 0.0208793 0.0204999 0.0005 
2033 1 0.0129032 0.0203604 0.0215916 0.0005 
1264 1 0.0111262 0.0205909 0.0205 0.0005 
1164 1 0.0122692 0.0210329 0.02075 0.00075 
982 1 0.0148007 0.0203657 0.0204997 0.0005 
1448 1 0.0127634 0.0182757 0.0204999 0.0005 
2386 1 0.0137922 0.0181908 0.0212046 0.00075 
2420 1 0.0134454 0.0206373 0.0205 0.0005 
2431 1 0.0145689 0.0175107 0.0205 0.0005 
2287 1 0.0143697 0.0193535 0.0208137 0.0005 
2500 1 0.0150187 0.0199026 0.0213583 0.0005 
2378 1 0.0140658 0.0202347 0.0211756 0.0005 
2447 1 0.0139259 0.0194232 0.022116 0.00075 
2086 1 0.0132346 0.0170312 0.021492 0.0005 
1311 1 0.0153306 0.019496 0.0204999 0.0005 
2645 1 0.0149958 0.0177732 0.0213654 0.0005 
1376 1 0.00907721 0.0198088 0.0210796 0.0005 
2392 1 0.0121689 0.0182495 0.0216266 0.0005 
1757 1 0.0150892 0.0208214 0.0217465 0.0005 
2594 1 0.0135782 0.0210779 0.0214026 0.0005 
2618 1 0.0151792 0.0173957 0.0222781 0.0005 
2897 1 0.0096503 0.0192295 0.0205 0.0005 
1338 1 0.0155248 0.0178053 0.0205 0.0005 
2978 1 0.00924335 0.0162154 0.0207517 0.00075 
2989 1 0.0110974 0.0193022 0.0207896 0.0005 
2598 1 0.0155721 0.0188432 0.022264 0.001 
2289 1 0.0129952 0.0185788 0.0220861 0.0005 
3051 1 0.0117497 0.0165883 0.0218786 0.0005 
3061 1 0.00921697 0.0152322 0.021589 0.0005 
3029 1 0.0104225 0.0199264 0.0222058 0.0005 
3080 1 0.010543 0.0159337 0.021669 0.0005 
2473 1 0.0141578 0.0182097 0.0223997 0.0005 
43 1 0.015968 0.014704 0.0204998 0.0005 
3118 1 0.00999326 0.0151205 0.0206611 0.0005 
639 1 0.0225372 0.0142091 0.0214589 0.0005 
350 1 0.0205376 0.0142464 0.0214996 0.0015 
78 1 0.0227718 0.0143685 0.0205 0.0005 
2511 1 0.0162061 0.0170205 0.0205 0.0005 
2117 1 0.0168462 0.0156523 0.0215916 0.0005 
189 1 0.0165288 0.0155317 0.0204999 0.0005 
2460 1 0.0161425 0.0189079 0.0205 0.0005 
139 1 0.0173731 0.0143767 0.0209998 0.001 
1193 1 0.0186428 0.0150834 0.0213725 0.0005 
345 1 0.019111 0.0152292 0.0205 0.0005 
741 1 0.0179195 0.0157493 0.0215597 0.0005 
450 1 0.0181336 0.0155689 0.0204999 0.0005 
947 1 0.017501 0.0178344 0.0205 0.0005 
591 1 0.0222618 0.015482 0.0207499 0.00075 
465 1 0.0182852 0.0172132 0.0204999 0.0005 
719 1 0.0189432 0.0163234 0.0210807 0.00075 
628 1 0.0235001 0.0166953 0.0204999 0.0005 
42 1 0.0223222 0.0170302 0.0207499 0.00075 
747 1 0.0211017 0.0158852 0.0205 0.0005 
813 1 0.0201064 0.0168809 0.0205 0.0005 
787 1 0.0185003 0.0181896 0.0204999 0.0005 
492 1 0.0192637 0.017419 0.0205 0.0005 
238 1 0.0235 0.0177296 0.0205 0.0005 
1216 1 0.0197005 0.0174562 0.0217156 0.00075 
1230 1 0.0173061 0.0164778 0.0207498 0.00075 
566 1 0.0206903 0.0180373 0.0207499 0.00075 
1333 1 0.0211062 0.0168853 0.0204999 0.0005 
1091 1 0.0194788 0.0183955 0.0205 0.0005 
1398 1 0.0211188 0.0201889 0.0204999 0.0005 
1189 1 0.0235 0.0148321 0.0210047 0.0005 
1427 1 0.0199564 0.0158781 0.0204999 0.0005 
898 1 0.0185991 0.0179967 0.0214761 0.0005 
1452 1 0.0200044 0.0195016 0.0207499 0.00075 
1488 1 0.018351 0.019405 0.02075 0.00075 
1124 1 0.0234998 0.0156954 0.0205 0.0005 
1020 1 0.0225001 0.019144 0.0214999 0.0015 
1401 1 0.0214258 0.0164901 0.0221523 0.001 
1298 1 0.020162 0.0163508 0.0213567 0.0005 
1170 1 0.02325 0.0162003 0.0216201 0.00075 
1831 1 0.0176839 0.0184718 0.0212485 0.0005 
957 1 0.0233675 0.0209338 0.0204999 0.0005 
1320 1 0.0186419 0.0208763 0.0207501 0.00075 
1598 1 0.019816 0.0206174 0.0212836 0.0005 
1437 1 0.0235001 0.020876 0.0214893 0.0005 
1184 1 0.0235001 0.0174128 0.0214484 0.0005 
1692 1 0.01922 0.0187768 0.0213994 0.0005 
1828 1 0.0180027 0.0171945 0.0215005 0.0005 
1202 1 0.0206654 0.0199058 0.0217307 0.0005 
1460 1 0.0207678 0.0208654 0.0214646 0.0005 
1984 1 0.0191262 0.0199504 0.0215651 0.0005 
1738 1 0.0172046 0.0189628 0.0205 0.0005 
1648 1 0.0167394 0.0204784 0.02125 0.00125 
2467 1 0.0165106 0.017975 0.0205 0.0005 
1963 1 0.0185047 0.0206227 0.0219673 0.0005 
1434 1 0.02325 0.0148492 0.0222713 0.00075 
1796 1 0.0198117 0.0194282 0.0220724 0.0005 
1105 1 0.0203846 0.0208677 0.0205 0.0005 
1865 1 0.0166909 0.0186014 0.0212781 0.0005 
1767 1 0.0209804 0.0179283 0.0219609 0.0005 
1929 1 0.0205305 0.0188505 0.0216856 0.0005 
2072 1 0.0234999 0.0176729 0.0224142 0.0005 
2099 1 0.0199678 0.0161823 0.0223242 0.0005 
838 1 0.0166853 0.0171822 0.0222264 0.001 
2396 1 0.0174209 0.0156537 0.0224213 0.0005 
678 1 0.00127476 0.021637 0.0209999 0.001 
700 1 0.00565288 0.0216704 0.0207505 0.00075 
1293 1 0.00271945 0.0221524 0.0205 0.0005 
1416 1 0.00369419 0.0223873 0.0205 0.0005 
1578 1 0.00514466 0.0226363 0.0213775 0.0005 
482 1 0.000499879 0.0228198 0.0204999 0.0005 
12 1 0.00229685 0.0233076 0.0207498 0.00075 
952 1 0.00615391 0.0251608 0.0205 0.0005 
1439 1 0.00692104 0.024206 0.02075 0.00075 
831 1 0.0051336 0.0240879 0.0209999 0.001 
534 1 0.000827807 0.0239964 0.0207644 0.00075 
1423 1 0.00130079 0.0266312 0.0214763 0.0005 
1406 1 0.000744348 0.0261429 0.0204999 0.0005 
483 1 0.000499814 0.0271124 0.0205004 0.0005 
1483 1 0.00747241 0.0227256 0.0205 0.0005 
1512 1 0.00326188 0.0258344 0.0205 0.0005 
752 1 0.00587872 0.0269812 0.0204997 0.0005 
1805 1 0.00348647 0.0246226 0.0207499 0.00075 
1576 1 0.000499983 0.0251733 0.0205 0.0005 
1373 1 0.00689554 0.0261374 0.02075 0.00075 
1860 1 0.00468935 0.0224859 0.0205 0.0005 
1625 1 0.000500883 0.0230265 0.0214832 0.0005 
1455 1 0.00191406 0.0253481 0.0209996 0.001 
1942 1 0.00639372 0.0228859 0.021233 0.00075 
1926 1 0.000499433 0.0245236 0.0218486 0.0005 
1520 1 0.00665008 0.0275464 0.0207915 0.0005 
1143 1 0.00328592 0.0275372 0.0207882 0.00075 
2021 1 0.00761251 0.0271304 0.0205 0.0005 
980 1 0.00547104 0.0278942 0.0204999 0.0005 
1825 1 0.000499643 0.0256933 0.0213589 0.0005 
2481 1 0.0074213 0.0281119 0.0204999 0.0005 
2583 1 0.00427028 0.025754 0.0205 0.0005 
1893 1 0.00105756 0.0252609 0.0222272 0.0005 
2706 1 0.000500211 0.0260922 0.0222861 0.0005 
348 1 0.00244655 0.0266577 0.0204997 0.0005 
775 1 0.00525714 0.0261482 0.0219072 0.00125 
1662 1 0.00364692 0.0232529 0.0214011 0.00075 
2168 1 0.00688797 0.0273139 0.0219963 0.00075 
2244 1 0.00146828 0.026864 0.0205 0.0005 
2852 1 0.00436051 0.0267608 0.0205 0.0005 
2884 1 0.00365464 0.0263997 0.0212253 0.0005 
2920 1 0.00572802 0.0278178 0.0214664 0.0005 
1474 1 0.00487805 0.0223402 0.0222947 0.0005 
1449 1 0.00203983 0.0276843 0.0205 0.0005 
2833 1 0.00401555 0.0274439 0.0218049 0.0005 
2427 1 0.00447548 0.027801 0.0205 0.0005 
1991 1 0.00640631 0.0242257 0.0221926 0.00075 
2565 1 0.00762374 0.0234839 0.0217224 0.0005 
2813 1 0.00124947 0.0276466 0.0216913 0.0005 
1209 1 0.000500631 0.0270263 0.0219273 0.0005 
1285 1 0.0007573 0.0283091 0.0207525 0.00075 
3065 1 0.00479006 0.0279762 0.0221486 0.0005 
2922 1 0.0022088 0.0272807 0.0224043 0.00075 
1702 1 0.000500096 0.0282095 0.0220406 0.0005 
2864 1 0.00326293 0.0283397 0.0222551 0.00075 
600 1 0.00861527 0.0214881 0.0212497 0.00125 
1144 1 0.010133 0.0222657 0.0216414 0.0005 
1577 1 0.0134845 0.0216388 0.0205001 0.0005 
1650 1 0.00809138 0.0234336 0.0208399 0.0005 
946 1 0.0081466 0.0251897 0.0219895 0.00125 
904 1 0.00842252 0.0243138 0.0204999 0.0005 
1081 1 0.00819283 0.0263157 0.0205 0.0005 
1343 1 0.0108778 0.0218036 0.0207504 0.00075 
1394 1 0.00958271 0.0235061 0.0210014 0.001 
1698 1 0.00968067 0.0255213 0.02075 0.00075 
1342 1 0.0109991 0.0248125 0.0216208 0.00075 
978 1 0.0104551 0.0264813 0.0205 0.0005 
1208 1 0.0104866 0.0245961 0.0205 0.0005 
1350 1 0.0136078 0.0238752 0.0204999 0.0005 
919 1 0.00929576 0.0279504 0.0217498 0.00175 
780 1 0.0129018 0.0256845 0.0205 0.0005 
353 1 0.0147301 0.0237494 0.0204999 0.0005 
1294 1 0.0128334 0.022822 0.0205 0.0005 
1180 1 0.0120236 0.0222355 0.0204999 0.0005 
1462 1 0.0116769 0.025862 0.0213385 0.0005 
1467 1 0.0124489 0.0237451 0.0205007 0.0005 
1552 1 0.0129163 0.0221288 0.0215443 0.00075 
1602 1 0.0114513 0.026358 0.0205 0.0005 
1621 1 0.0128608 0.0253422 0.0217189 0.00075 
861 1 0.0142775 0.0249005 0.0207499 0.00075 
1643 1 0.0119466 0.0253886 0.0205 0.0005 
1539 1 0.0130045 0.0246803 0.0205 0.0005 
1330 1 0.0141038 0.0238275 0.0213669 0.0005 
1192 1 0.0148081 0.0260043 0.0205 0.0005 
1614 1 0.0113186 0.0232694 0.02075 0.00075 
1693 1 0.0153231 0.0227634 0.0205 0.0005 
1618 1 0.0114849 0.0245015 0.0205005 0.0005 
1221 1 0.0140544 0.0227284 0.0207499 0.00075 
1915 1 0.0138061 0.026112 0.0205 0.0005 
1869 1 0.0109507 0.0254871 0.0205 0.0005 
2193 1 0.011055 0.0272825 0.0205 0.0005 
2263 1 0.0139608 0.0258772 0.0214625 0.0005 
2270 1 0.0127423 0.0272831 0.0212499 0.00125 
1753 1 0.015351 0.0238744 0.0212736 0.0005 
862 1 0.0145598 0.0274931 0.0204999 0.0005 
1775 1 0.0142013 0.021883 0.0216592 0.0005 
2004 1 0.0143842 0.026699 0.0210815 0.0005 
1958 1 0.0144184 0.027704 0.0215264 0.0005 
2243 1 0.0156353 0.0269073 0.02075 0.00075 
1017 1 0.0150096 0.0215722 0.0207503 0.00075 
2348 1 0.0146605 0.0231048 0.0217762 0.0005 
1955 1 0.0150599 0.0262055 0.021629 0.0005 
144 1 0.0159888 0.0252099 0.0209998 0.001 
1563 1 0.0159298 0.023562 0.0205 0.0005 
2603 1 0.0130798 0.0234531 0.0212365 0.0005 
2121 1 0.0106852 0.0260116 0.0213523 0.0005 
2261 1 0.0154072 0.0278532 0.0215345 0.0005 
2026 1 0.0111861 0.0267327 0.0218309 0.0005 
2662 1 0.0136572 0.0230929 0.0219693 0.0005 
2201 1 0.0121654 0.0244241 0.0212331 0.0005 
1935 1 0.0111611 0.0282769 0.0205 0.0005 
2010 1 0.0133531 0.0242087 0.0219065 0.0005 
1931 1 0.0113103 0.0258391 0.0222687 0.0005 
2419 1 0.0150041 0.0271597 0.0221315 0.0005 
1768 1 0.0158794 0.0281197 0.0205 0.0005 
2097 1 0.00987123 0.024916 0.0221636 0.0005 
2143 1 0.00865974 0.0235263 0.0221842 0.0005 
1837 1 0.0159938 0.0270383 0.0220527 0.0005 
3001 1 0.0121234 0.0213361 0.0221363 0.0005 
2681 1 0.0150419 0.0216802 0.022257 0.0005 
2411 1 0.0103105 0.025816 0.0222586 0.0005 
1682 1 0.0109414 0.0225611 0.0221504 0.0005 
1655 1 0.0121217 0.0234603 0.0223904 0.001 
1794 1 0.016097 0.0226751 0.0218128 0.001 
1219 1 0.0220217 0.0215462 0.0209997 0.001 
152 1 0.0208569 0.0236084 0.0204999 0.0005 
1292 1 0.0171187 0.0238973 0.02075 0.00075 
512 1 0.0190494 0.0269149 0.0205 0.0005 
1288 1 0.0161729 0.0219542 0.0204998 0.0005 
1048 1 0.0179485 0.0222062 0.0207498 0.00075 
1415 1 0.0215377 0.0228759 0.0205 0.0005 
1087 1 0.0234947 0.0256551 0.0205 0.0005 
1176 1 0.0183146 0.0259351 0.02075 0.00075 
1269 1 0.0232502 0.0227669 0.0207499 0.00075 
1507 1 0.0235001 0.0248287 0.0218544 0.0005 
1574 1 0.0235 0.0266553 0.0205 0.0005 
1472 1 0.0232502 0.0242995 0.0207499 0.00075 
1590 1 0.0222364 0.0249865 0.0204998 0.0005 
1634 1 0.0186173 0.0238349 0.02075 0.00075 
908 1 0.0222932 0.023531 0.0205 0.0005 
1646 1 0.0168308 0.022707 0.0204999 0.0005 
1927 1 0.0170979 0.0260927 0.0205 0.0005 
1897 1 0.0178404 0.0232019 0.021866 0.00075 
1370 1 0.023021 0.0277825 0.0207499 0.00075 
1243 1 0.0201476 0.0250215 0.0212499 0.00125 
1978 1 0.0174051 0.0251062 0.0205 0.0005 
1881 1 0.016903 0.0243968 0.0218753 0.0005 
1514 1 0.0198793 0.0223659 0.0212499 0.00125 
1925 1 0.0216108 0.0242333 0.0207023 0.0005 
1527 1 0.0180675 0.0248276 0.0217309 0.00075 
1106 1 0.0174218 0.0276543 0.0212499 0.00125 
1323 1 0.0189817 0.0279127 0.0205 0.0005 
1090 1 0.0223924 0.0261807 0.0217692 0.00125 
1015 1 0.0217977 0.0277168 0.0205 0.0005 
1974 1 0.0235 0.0282069 0.0218236 0.0005 
1267 1 0.0204263 0.0272404 0.0209999 0.001 
2065 1 0.0190092 0.0238832 0.0219359 0.0005 
1910 1 0.0191357 0.0277163 0.021598 0.0005 
2198 1 0.0235001 0.027384 0.0223917 0.0005 
2162 1 0.0211078 0.0215468 0.022189 0.0005 
2008 1 0.018677 0.0283065 0.0222802 0.0005 
1606 1 0.0188236 0.0263782 0.0224618 0.001 
2303 1 0.0180702 0.0217649 0.0222304 0.00075 
2449 1 0.00712024 0.0284301 0.0214344 0.0005 
1480 1 0.00618162 0.0288915 0.0207499 0.00075 
1103 1 0.0049442 0.0287602 0.0205 0.0005 
138 1 0.00776102 0.0290523 0.0204999 0.0005 
162 1 0.000603343 0.0315386 0.0205 0.0005 
259 1 0.003612 0.0316717 0.0205 0.0005 
522 1 0.00178033 0.0336844 0.0207493 0.00075 
337 1 0.0026463 0.0299406 0.02075 0.00075 
638 1 0.00534671 0.0332127 0.0207499 0.00075 
506 1 0.000742164 0.0344725 0.0209829 0.0005 
1084 1 0.00124492 0.0304781 0.0207499 0.00075 
1355 1 0.00317951 0.0335249 0.0205 0.0005 
1451 1 0.00387401 0.0286017 0.0204999 0.0005 
412 1 0.00221332 0.0319141 0.021 0.001 
1607 1 0.0015018 0.0292808 0.0204999 0.0005 
1290 1 0.000499983 0.029506 0.0205 0.0005 
1761 1 0.00644996 0.0345906 0.0204999 0.0005 
1760 1 0.00410278 0.0331117 0.0205 0.0005 
1611 1 0.00509165 0.0344801 0.0205 0.0005 
2278 1 0.00287767 0.0287059 0.0205 0.0005 
2306 1 0.00531816 0.0316352 0.0207504 0.00075 
2343 1 0.00565399 0.0302133 0.0205 0.0005 
2387 1 0.00666523 0.032378 0.02075 0.00075 
2407 1 0.00430424 0.0309494 0.0204994 0.0005 
2421 1 0.006511 0.0335927 0.0204999 0.0005 
672 1 0.00734954 0.0353961 0.0208226 0.00075 
2537 1 0.00420608 0.0295498 0.0205001 0.0005 
1872 1 0.00721176 0.0305254 0.0212682 0.00125 
1792 1 0.00409686 0.0314294 0.0216394 0.00075 
2484 1 0.00550823 0.0307617 0.0216253 0.0005 
2573 1 0.00505326 0.0296134 0.0214249 0.00075 
1993 1 0.00204368 0.0286705 0.0214465 0.00075 
2455 1 0.00748899 0.033087 0.0214613 0.0005 
2622 1 0.00652336 0.0319844 0.0219536 0.0005 
1291 1 0.000749447 0.0328479 0.0214456 0.00075 
2548 1 0.00302333 0.0307914 0.0215845 0.0005 
2570 1 0.00572679 0.0325504 0.0217396 0.0005 
897 1 0.000500153 0.03363 0.0205006 0.0005 
1168 1 0.00424682 0.0329194 0.0217267 0.00075 
1136 1 0.000749907 0.0313976 0.0218264 0.00075 
2381 1 0.00410455 0.0288 0.021453 0.0005 
2530 1 0.00380917 0.0302818 0.0210541 0.0005 
2154 1 0.000759335 0.0294255 0.0217541 0.00075 
535 1 0.00145213 0.0349853 0.0205 0.0005 
2604 1 0.00633438 0.0341767 0.0221973 0.00125 
2371 1 0.00202008 0.030577 0.0217386 0.0005 
2660 1 0.00473559 0.0305247 0.0222195 0.0005 
2423 1 0.0063771 0.0289924 0.0222693 0.00075 
2337 1 0.0075271 0.0333616 0.0205 0.0005 
2626 1 0.00526527 0.0317016 0.0219979 0.0005 
2456 1 0.00750226 0.0321575 0.0218297 0.0005 
2628 1 0.00148214 0.0337189 0.0219636 0.0005 
2152 1 0.000500015 0.0354211 0.0205 0.0005 
2874 1 0.00769586 0.0352609 0.0220163 0.0005 
835 1 0.00786323 0.0343034 0.0204999 0.0005 
2718 1 0.00366439 0.0297879 0.0221925 0.00075 
2330 1 0.000499889 0.033544 0.022453 0.0005 
1417 1 0.000754592 0.034746 0.0222232 0.00075 
2493 1 0.00847698 0.0351819 0.0213178 0.0005 
2772 1 0.00835234 0.0298777 0.0224266 0.0005 
2393 1 0.0114881 0.028459 0.0215777 0.0005 
1987 1 0.0147649 0.0285855 0.0218472 0.0005 
1870 1 0.0141692 0.0286537 0.0207499 0.00075 
2301 1 0.0126321 0.029107 0.0220628 0.00075 
505 1 0.00854986 0.0296666 0.0205 0.0005 
886 1 0.00878476 0.0306384 0.0205097 0.0005 
1249 1 0.013012 0.032909 0.0207499 0.00075 
1154 1 0.010853 0.0324777 0.0205 0.0005 
609 1 0.0118532 0.0325106 0.0205 0.0005 
1134 1 0.00816316 0.0322838 0.02075 0.00075 
1340 1 0.0112608 0.0333908 0.0205 0.0005 
1678 1 0.0121538 0.0338408 0.0205 0.0005 
1703 1 0.010291 0.0316505 0.0205 0.0005 
1095 1 0.0131106 0.034132 0.0205 0.0005 
1815 1 0.00915839 0.0315659 0.0204999 0.0005 
1348 1 0.0129964 0.0302116 0.0204998 0.0005 
2043 1 0.0106424 0.0292542 0.0205 0.0005 
1867 1 0.00859429 0.033636 0.0212629 0.00075 
1793 1 0.0142374 0.029949 0.0218996 0.00075 
2242 1 0.0118937 0.0310968 0.0209999 0.001 
2245 1 0.00987388 0.0307509 0.0212608 0.00075 
2266 1 0.012958 0.0288495 0.0205 0.0005 
1954 1 0.0107623 0.0302481 0.0205 0.0005 
1762 1 0.00876663 0.0313197 0.0213864 0.0005 
640 1 0.00964379 0.0326902 0.0207499 0.00075 
2323 1 0.0125352 0.0349498 0.0205 0.0005 
2362 1 0.0139715 0.0299905 0.0205 0.0005 
2347 1 0.0115785 0.0346588 0.0205 0.0005 
1361 1 0.0151656 0.0302522 0.0207608 0.00075 
2202 1 0.0138699 0.0314043 0.0209999 0.001 
2451 1 0.0118538 0.0293583 0.0207902 0.00075 
1083 1 0.0146739 0.0339041 0.0212532 0.00125 
2305 1 0.0152738 0.0312046 0.0215751 0.0005 
2225 1 0.00978147 0.0297634 0.0205 0.0005 
2408 1 0.0132016 0.0348597 0.021242 0.0005 
2304 1 0.0102045 0.0343279 0.0210059 0.001 
2574 1 0.013352 0.0295202 0.0211284 0.0005 
698 1 0.0154434 0.0321281 0.0207499 0.00075 
2317 1 0.0111137 0.0299067 0.0224052 0.001 
2404 1 0.0124214 0.0340026 0.0217102 0.00075 
2390 1 0.00898043 0.0322414 0.02171 0.0005 
2252 1 0.0121034 0.0324955 0.0215022 0.0005 
2577 1 0.0113211 0.03312 0.0214675 0.0005 
2505 1 0.012943 0.0302573 0.0216662 0.0005 
2439 1 0.0154093 0.0324771 0.0219497 0.0005 
2247 1 0.0114916 0.0349881 0.0214463 0.0005 
1786 1 0.0153517 0.0289724 0.0205 0.0005 
2469 1 0.00905073 0.035142 0.0204999 0.0005 
2412 1 0.0129905 0.0311139 0.0221797 0.0005 
2345 1 0.0107115 0.0320261 0.0223183 0.001 
2297 1 0.0132501 0.0326518 0.0224644 0.001 
2379 1 0.0121566 0.0316287 0.022378 0.0005 
2612 1 0.00843417 0.0345957 0.0221266 0.0005 
2443 1 0.00928282 0.0301573 0.0221888 0.0005 
2502 1 0.0145911 0.0319565 0.0221936 0.0005 
2887 1 0.0098419 0.0331696 0.0218872 0.0005 
1854 1 0.0159701 0.0289588 0.0216863 0.00075 
2690 1 0.0118144 0.0330737 0.0223381 0.0005 
2217 1 0.00931703 0.0350491 0.0219771 0.0005 
2357 1 0.0111348 0.0341141 0.0224732 0.00075 
2239 1 0.0119583 0.0350989 0.0223275 0.0005 
2639 1 0.00870002 0.0311398 0.0223901 0.0005 
2349 1 0.010574 0.0353214 0.0221058 0.0005 
1167 1 0.0141758 0.0354028 0.0204998 0.0005 
1409 1 0.0163616 0.0289978 0.0204999 0.0005 
1113 1 0.0174339 0.0295906 0.0207499 0.00075 
1044 1 0.0196189 0.0293618 0.0212499 0.00125 
557 1 0.0193388 0.0339914 0.0212674 0.00125 
304 1 0.0225038 0.0311086 0.0204998 0.0005 
1142 1 0.0223549 0.0345113 0.0205 0.0005 
1335 1 0.0169982 0.0327883 0.0205 0.0005 
1414 1 0.0235 0.0348737 0.0205 0.0005 
1016 1 0.023094 0.0321828 0.02075 0.00075 
1531 1 0.017424 0.0337218 0.0204999 0.0005 
1329 1 0.0235 0.0289097 0.0205 0.0005 
1318 1 0.0181171 0.0330011 0.0205 0.0005 
1305 1 0.018171 0.0308969 0.02075 0.00075 
1258 1 0.0233477 0.0299009 0.0205 0.0005 
1695 1 0.0174204 0.0351359 0.0209999 0.001 
1224 1 0.0167528 0.0313964 0.0207499 0.00075 
878 1 0.02325 0.0336746 0.0207499 0.00075 
1213 1 0.0191 0.0320745 0.0207498 0.00075 
1447 1 0.0163105 0.0304154 0.0217946 0.00075 
1603 1 0.0163877 0.0302274 0.0205 0.0005 
1403 1 0.0175581 0.0304868 0.0217592 0.0005 
1445 1 0.0235002 0.0310275 0.0204999 0.0005 