ITEM: TIMESTEP
50000
ITEM: NUMBER OF ATOMS
546
ITEM: BOX BOUNDS mm mm mm
-2.4e-06 0.0240024
-7.8e-06 0.0780078
-3e-06 0.030003
ITEM: ATOMS id type x y z radius 
199 1 0.0077879 0.000678643 0.0209075 0.0005 
324 1 0.00403424 0.00382164 0.0220133 0.002 
448 1 0.00312169 0.0070826 0.0206027 0.0005 
25 1 0.0144784 0.00445409 0.0218042 0.00125 
32 1 0.0101205 0.00372371 0.0205 0.0005 
100 1 0.00897703 0.00451827 0.0205491 0.0005 
395 1 0.0106899 0.00443364 0.0217613 0.0005 
213 1 0.0104923 0.00694467 0.0220124 0.002 
474 1 0.0120993 0.00201956 0.02093 0.00075 
51 1 0.0162882 0.00465718 0.0205089 0.0005 
178 1 0.0181807 0.00101515 0.02075 0.00075 
161 1 0.019685 0.000827461 0.02075 0.00075 
155 1 0.0163523 0.00288615 0.0212509 0.00125 
159 1 0.0224536 0.00691144 0.0205 0.0005 
204 1 0.0206635 0.00169134 0.0208563 0.0005 
219 1 0.0208974 0.00390927 0.0210084 0.001 
126 1 0.0173844 0.00635845 0.0214999 0.0015 
108 1 0.0188509 0.00297836 0.0212512 0.00125 
333 1 0.0232249 0.0050671 0.0218236 0.00075 
142 1 0.0208061 0.00101293 0.0222112 0.00075 
228 1 0.00589057 0.00939856 0.0205 0.0005 
274 1 0.00757706 0.0117474 0.0208036 0.0005 
360 1 0.00251721 0.0140845 0.0208238 0.0005 
64 1 0.00333178 0.0116901 0.0214861 0.001 
380 1 0.00496329 0.0120883 0.0211046 0.0005 
89 1 0.00540113 0.0113017 0.0215844 0.0005 
442 1 0.00255053 0.00903209 0.0210004 0.001 
490 1 0.00473934 0.0109273 0.0209284 0.0005 
527 1 0.00389855 0.0096497 0.0215722 0.0005 
97 1 0.0155223 0.00827035 0.0223506 0.001 
217 1 0.00985815 0.00960218 0.02052 0.0005 
275 1 0.00976901 0.0123414 0.0207523 0.00075 
289 1 0.0122579 0.01022 0.0205 0.0005 
307 1 0.0108329 0.0128476 0.0213695 0.0005 
46 1 0.0145832 0.011547 0.0207518 0.00075 
10 1 0.0134272 0.0120352 0.0205338 0.0005 
501 1 0.00862232 0.0109901 0.0205515 0.0005 
311 1 0.0147656 0.0141762 0.0221859 0.001 
171 1 0.0171698 0.008551 0.02075 0.00075 
190 1 0.0219671 0.0139692 0.02075 0.00075 
200 1 0.0198508 0.00744667 0.0207715 0.00075 
319 1 0.017483 0.0129098 0.0211364 0.0005 
57 1 0.0211949 0.0117998 0.0215031 0.0015 
143 1 0.0221663 0.013663 0.0220494 0.0005 
452 1 0.023052 0.00987233 0.0213057 0.0005 
192 1 0.018476 0.0115984 0.0207594 0.00075 
185 1 0.0192814 0.00933347 0.0216224 0.00125 
66 1 0.0188986 0.0120257 0.0218813 0.0005 
209 1 0.019097 0.0130523 0.0205009 0.0005 
98 1 0.00152578 0.0172744 0.0215093 0.0015 
154 1 0.00520364 0.0188201 0.02075 0.00075 
287 1 0.00687594 0.0187546 0.0208967 0.0005 
110 1 0.00675786 0.0197259 0.0206922 0.0005 
44 1 0.00385095 0.01959 0.02075 0.00075 
121 1 0.00627065 0.0205764 0.0204988 0.0005 
75 1 0.00127272 0.0142106 0.0207555 0.00075 
13 1 0.000538825 0.0187767 0.0205781 0.0005 
137 1 0.000504673 0.0206341 0.0205108 0.0005 
153 1 0.00982741 0.0143077 0.0220088 0.0005 
80 1 0.0121498 0.0148074 0.0219338 0.001 
30 1 0.0109821 0.0181069 0.0210527 0.001 
62 1 0.00897179 0.0208918 0.0219998 0.002 
293 1 0.0154103 0.0178289 0.0218047 0.00175 
252 1 0.0113786 0.0201016 0.022407 0.0005 
49 1 0.0172642 0.0200036 0.0205533 0.0005 
78 1 0.0185816 0.0187148 0.0205107 0.0005 
308 1 0.0181247 0.0173634 0.0210623 0.001 
231 1 0.0234837 0.0170446 0.0205656 0.0005 
113 1 0.0179208 0.0145758 0.0205015 0.0005 
33 1 0.0197996 0.0149905 0.0221014 0.002 
330 1 0.0228539 0.0187898 0.0211384 0.00075 
6 1 0.0228844 0.0157007 0.0213388 0.001 
174 1 0.00182915 0.0231605 0.0213163 0.001 
439 1 0.00547855 0.0219132 0.0213009 0.00125 
70 1 0.00641077 0.0253757 0.0205 0.0005 
482 1 0.00705893 0.0241618 0.0214992 0.0005 
12 1 0.00191343 0.0280456 0.02075 0.00075 
180 1 0.0062008 0.0277787 0.0220236 0.002 
71 1 0.0105558 0.0222261 0.02057 0.0005 
260 1 0.0142647 0.0242494 0.0210209 0.001 
43 1 0.010714 0.024283 0.0205586 0.0005 
1 1 0.00945394 0.0263914 0.0208013 0.00075 
60 1 0.0125579 0.0272815 0.0217759 0.00175 
465 1 0.0107126 0.0234321 0.0213452 0.0005 
41 1 0.0179326 0.0210989 0.0212709 0.00075 
42 1 0.0232485 0.0247369 0.0207757 0.00075 
337 1 0.0194357 0.0254614 0.0218502 0.00075 
272 1 0.0234701 0.0233464 0.0205036 0.0005 
130 1 0.0228351 0.0229594 0.0212169 0.0005 
139 1 0.0216365 0.0245411 0.0215845 0.001 
146 1 0.0215025 0.0256496 0.0205127 0.0005 
512 1 0.0180344 0.0245336 0.0222183 0.0005 
162 1 0.000500309 0.0290944 0.0205039 0.0005 
36 1 0.0017528 0.0304917 0.0217525 0.00175 
249 1 0.00427211 0.0333081 0.0220211 0.002 
259 1 0.00101464 0.0337251 0.0214051 0.0005 
354 1 0.00617283 0.0339885 0.0205068 0.0005 
534 1 0.00748173 0.0308024 0.0207806 0.00075 
451 1 0.00891071 0.0285355 0.020864 0.00075 
247 1 0.00937865 0.0321626 0.0220001 0.00075 
269 1 0.0139587 0.031319 0.0212999 0.00125 
348 1 0.0150458 0.0346869 0.0205 0.0005 
386 1 0.0106362 0.0345062 0.0209313 0.0005 
405 1 0.0139091 0.0353134 0.0205573 0.0005 
433 1 0.0123311 0.0354259 0.0217307 0.0005 
505 1 0.0123226 0.0329546 0.0213023 0.0005 
400 1 0.018281 0.0301255 0.0205 0.0005 
345 1 0.0171361 0.0297764 0.0210469 0.0005 
54 1 0.0160936 0.0321477 0.0209999 0.001 
152 1 0.0160192 0.0299899 0.0211472 0.0005 
91 1 0.0173919 0.0349863 0.020829 0.00075 
261 1 0.0166465 0.0335593 0.0205 0.0005 
198 1 0.0184462 0.03175 0.0212509 0.00125 
374 1 0.0207471 0.0349844 0.0208882 0.00075 
3 1 0.00668583 0.0407935 0.0205035 0.0005 
122 1 0.00132921 0.0407154 0.0210196 0.001 
423 1 0.00541134 0.0400152 0.0213647 0.001 
347 1 0.00712314 0.0372958 0.0221719 0.00075 
522 1 0.0025483 0.0373441 0.0221181 0.00075 
265 1 0.00343866 0.0399643 0.0211579 0.00075 
535 1 0.00240966 0.0361301 0.0206477 0.0005 
537 1 0.0053142 0.0424857 0.0230599 0.00125 
138 1 0.0106405 0.0362982 0.0205139 0.0005 
40 1 0.0108662 0.0395131 0.0207632 0.0005 
328 1 0.0147288 0.0377974 0.0216831 0.0005 
402 1 0.00839443 0.0403371 0.0219014 0.00175 
410 1 0.0155157 0.0401074 0.0205001 0.0005 
309 1 0.0142848 0.0388678 0.0211275 0.0005 
514 1 0.0139677 0.0364007 0.0224462 0.0005 
242 1 0.0183003 0.0406464 0.0205385 0.0005 
268 1 0.0164767 0.0388831 0.0210224 0.0005 
353 1 0.0185763 0.035736 0.0205021 0.0005 
394 1 0.0177348 0.0392258 0.0206409 0.0005 
285 1 0.0197735 0.0372216 0.0222469 0.002 
244 1 0.00136646 0.0472098 0.0208584 0.0005 
165 1 0.000730302 0.0482025 0.020512 0.0005 
331 1 0.00279257 0.0476407 0.0215935 0.0005 
361 1 0.00412854 0.0483195 0.0209261 0.0005 
496 1 0.00557707 0.0450231 0.0218757 0.00075 
346 1 0.00864502 0.0486244 0.0219986 0.002 
88 1 0.0109563 0.0477789 0.0205 0.0005 
335 1 0.0109834 0.0454169 0.0205543 0.0005 
367 1 0.0125244 0.0473022 0.022325 0.00175 
431 1 0.0142396 0.0491314 0.0210032 0.001 
533 1 0.00898138 0.0455284 0.0211577 0.00075 
73 1 0.0228481 0.0430066 0.0209999 0.001 
112 1 0.0229303 0.0467086 0.02075 0.00075 
168 1 0.0212468 0.045345 0.0215142 0.0015 
74 1 0.0232494 0.0479561 0.0215508 0.00075 
470 1 0.0222374 0.0494875 0.021711 0.0005 
526 1 0.0186502 0.0465689 0.022366 0.0005 
254 1 0.00637069 0.0504016 0.0207713 0.00075 
94 1 0.00451653 0.0506034 0.0209999 0.001 
264 1 0.00154313 0.0501239 0.0215578 0.0005 
379 1 0.00340307 0.0529188 0.0213103 0.0005 
332 1 0.000640208 0.0561099 0.0205229 0.0005 
421 1 0.00125896 0.0500992 0.0205 0.0005 
105 1 0.000557828 0.0546846 0.0211027 0.0005 
381 1 0.00148259 0.0525967 0.0208396 0.00075 
7 1 0.00656368 0.0522753 0.0223128 0.0005 
8 1 0.0159696 0.0513739 0.0205 0.0005 
147 1 0.00937783 0.0506213 0.0205414 0.0005 
133 1 0.0147548 0.0528779 0.0209208 0.0005 
306 1 0.0152191 0.0550541 0.0207747 0.00075 
227 1 0.0125944 0.0535155 0.0214999 0.0015 
48 1 0.0167806 0.0539783 0.0214606 0.00125 
186 1 0.0228349 0.0525378 0.0205893 0.0005 
45 1 0.0190535 0.0550969 0.0212499 0.00125 
84 1 0.022682 0.0547912 0.0212499 0.00125 
179 1 0.0234996 0.0534378 0.0205 0.0005 
222 1 0.0233512 0.0517897 0.0211821 0.0005 
67 1 0.0233542 0.0531633 0.0216469 0.0005 
530 1 0.0187474 0.0515761 0.0220194 0.00075 
263 1 0.00192125 0.0591959 0.0216745 0.0015 
86 1 0.00140203 0.0615598 0.0210052 0.001 
299 1 0.00632292 0.0638208 0.0205907 0.0005 
216 1 0.000764343 0.0631849 0.0207581 0.00075 
417 1 0.000590167 0.0618787 0.022451 0.0005 
396 1 0.00738686 0.0616763 0.0215775 0.00125 
129 1 0.00824365 0.0627762 0.0205069 0.0005 
24 1 0.00899833 0.0570411 0.0215984 0.00125 
81 1 0.011018 0.0619206 0.02075 0.00075 
414 1 0.013287 0.0590343 0.0220062 0.001 
484 1 0.0117747 0.0569549 0.0218321 0.00075 
493 1 0.0100155 0.0609038 0.0212586 0.0005 
438 1 0.00868322 0.0626647 0.0223425 0.0005 
502 1 0.01572 0.057017 0.0221982 0.001 
157 1 0.0228702 0.0571552 0.0213456 0.001 
104 1 0.0234299 0.0592787 0.0209129 0.0005 
271 1 0.0222121 0.0582114 0.0205 0.0005 
313 1 0.0173638 0.057985 0.0211096 0.00075 
158 1 0.0186813 0.0619222 0.0223315 0.00225 
18 1 0.0220248 0.0587304 0.0218156 0.0005 
225 1 0.023275 0.0612075 0.0213356 0.0005 
255 1 0.0209499 0.0590652 0.0220485 0.0005 
356 1 0.00275229 0.0642193 0.0219024 0.00175 
76 1 0.000509047 0.0646291 0.0205394 0.0005 
82 1 0.00662266 0.0706953 0.021504 0.0015 
351 1 0.00250213 0.0679387 0.021625 0.0005 
288 1 0.00939699 0.0702311 0.0209305 0.0005 
235 1 0.0157159 0.0676493 0.0205 0.0005 
181 1 0.0118605 0.0647735 0.0213548 0.0005 
325 1 0.0100642 0.0663902 0.021689 0.0005 
387 1 0.00841163 0.0644964 0.0215265 0.0015 
26 1 0.0137833 0.0679514 0.0217542 0.00175 
473 1 0.00910005 0.06792 0.0216195 0.00075 
408 1 0.0162886 0.0666627 0.0210132 0.00075 
39 1 0.0224158 0.0656689 0.0207546 0.00075 
257 1 0.019657 0.0662734 0.0206045 0.0005 
14 1 0.023033 0.0670391 0.0205 0.0005 
134 1 0.0217793 0.0693696 0.0205092 0.0005 
239 1 0.0208463 0.0658332 0.0205115 0.0005 
163 1 0.0169411 0.0697693 0.0205 0.0005 
9 1 0.0191042 0.0688123 0.0217502 0.00175 
404 1 0.0211218 0.0669336 0.0211082 0.00075 
102 1 0.01731 0.0658623 0.0205974 0.0005 
52 1 0.0227881 0.0697238 0.0207688 0.0005 
418 1 0.0216488 0.0648959 0.0215741 0.0005 
280 1 0.0229308 0.065998 0.0221734 0.00075 
117 1 0.0232321 0.0644349 0.0222232 0.00075 
312 1 0.0222927 0.0704285 0.0223708 0.00075 
20 1 0.00110735 0.0719842 0.0205022 0.0005 
187 1 0.00365088 0.0710534 0.0207361 0.0005 
210 1 0.00264644 0.0769862 0.0209999 0.001 
149 1 0.000685924 0.072977 0.0205632 0.0005 
182 1 0.00718121 0.0733742 0.02075 0.00075 
69 1 0.000825457 0.0771459 0.0216555 0.00075 
443 1 0.00549479 0.0747809 0.0220425 0.00125 
87 1 0.0143472 0.0768106 0.0205001 0.0005 
125 1 0.00962452 0.0757185 0.0204992 0.0005 
79 1 0.0141111 0.0763664 0.0220321 0.001 
195 1 0.0113155 0.0767016 0.0215605 0.0005 
72 1 0.0122581 0.0745915 0.0221819 0.0015 
29 1 0.0102121 0.0770695 0.0221342 0.00075 
101 1 0.00799004 0.0749858 0.0209655 0.0005 
435 1 0.00824647 0.0730214 0.0213386 0.0005 
141 1 0.0153005 0.0773415 0.0208666 0.0005 
498 1 0.015301 0.0760421 0.0207588 0.00075 
449 1 0.0155244 0.0732929 0.0222057 0.002 
173 1 0.0103513 0.0756592 0.0221303 0.0005 
277 1 0.00870189 0.0713545 0.0223703 0.0005 
329 1 0.022233 0.0715207 0.021001 0.001 
93 1 0.0234999 0.0743422 0.0205484 0.0005 
481 1 0.0209184 0.0748868 0.0210203 0.0005 
291 1 0.00171002 0.00152188 0.0238545 0.0015 
170 1 0.00693041 0.0013111 0.0267722 0.001 
388 1 0.00220921 0.00370632 0.0280566 0.00175 
466 1 0.00733843 0.00305647 0.0234656 0.001 
486 1 0.00352732 0.00705444 0.0247884 0.00225 
300 1 0.000813262 0.00547171 0.0271984 0.0005 
151 1 0.00660239 0.00117443 0.0286929 0.00075 
176 1 0.00951604 0.000532637 0.0231513 0.0005 
282 1 0.0132432 0.00650937 0.0228211 0.0005 
362 1 0.0100288 0.00413337 0.0234129 0.0005 
364 1 0.00832514 0.00193042 0.0253495 0.00075 
370 1 0.00878499 0.00423103 0.023697 0.00075 
148 1 0.0112899 0.00115182 0.0254513 0.0005 
34 1 0.0106921 0.00290684 0.0278571 0.0005 
507 1 0.012632 0.0039755 0.0236937 0.00125 
524 1 0.00996067 0.00139139 0.0255319 0.00075 
31 1 0.0166649 0.00151149 0.0241372 0.0015 
241 1 0.0180914 0.000669749 0.0260142 0.0005 
123 1 0.0192834 0.00123649 0.0236036 0.001 
160 1 0.0222227 0.00246313 0.0255925 0.00175 
17 1 0.0198539 0.00116233 0.0269662 0.00075 
92 1 0.0229412 0.00572328 0.0289862 0.001 
273 1 0.0219707 0.00449992 0.0236204 0.001 
202 1 0.0231776 0.00150996 0.0291823 0.00075 
15 1 0.0175592 0.00188357 0.0267846 0.001 
136 1 0.0229744 0.00334568 0.0279691 0.00075 
322 1 0.0228052 0.00313935 0.0294212 0.0005 
156 1 0.00618109 0.0141185 0.0276183 0.0005 
256 1 0.00152382 0.00928075 0.0236354 0.0005 
390 1 0.00104118 0.0103161 0.0248609 0.0005 
427 1 0.00308465 0.0120929 0.0240487 0.0005 
447 1 0.00752133 0.00971191 0.0238871 0.0005 
28 1 0.00154352 0.00997575 0.0288763 0.00075 
392 1 0.00855228 0.00959785 0.0273589 0.001 
16 1 0.0130325 0.00608824 0.0289986 0.001 
115 1 0.0120021 0.0120969 0.0267538 0.00125 
318 1 0.0112755 0.0096279 0.0227952 0.00075 
372 1 0.0150819 0.0134604 0.025202 0.0015 
47 1 0.0117901 0.00684201 0.0273121 0.0005 
320 1 0.0100497 0.0108799 0.028849 0.001 
459 1 0.0142537 0.00824354 0.0270973 0.00125 
515 1 0.00980751 0.00923017 0.0251785 0.0015 
61 1 0.0107199 0.0139111 0.0259501 0.0005 
518 1 0.0212672 0.00645774 0.0245923 0.00075 
290 1 0.0187605 0.00867022 0.0237151 0.00075 
77 1 0.0226111 0.0132066 0.0273865 0.00075 
106 1 0.0201511 0.00862275 0.023225 0.0005 
281 1 0.0231991 0.00836109 0.0278753 0.00075 
365 1 0.0201444 0.0125988 0.0240962 0.00075 
419 1 0.0200012 0.00973488 0.0246704 0.001 
432 1 0.0212574 0.0115583 0.0235825 0.0005 
211 1 0.0178256 0.012593 0.0260501 0.0015 
2 1 0.0202546 0.00706598 0.0272394 0.00175 
340 1 0.0232441 0.0113096 0.023476 0.00075 
5 1 0.0218527 0.0107898 0.0285755 0.00125 
233 1 0.0172828 0.0138299 0.0228634 0.00075 
538 1 0.0231035 0.0138757 0.0250972 0.0005 
323 1 0.0020478 0.0205237 0.0227374 0.002 
35 1 0.00694928 0.0182192 0.0230975 0.0015 
401 1 0.00598351 0.0159415 0.025621 0.00125 
368 1 0.000569207 0.0153385 0.0238898 0.0005 
488 1 0.00279248 0.0159599 0.0242516 0.00175 
220 1 0.00164988 0.0148097 0.0292394 0.00075 
230 1 0.010695 0.0155813 0.0282184 0.0005 
188 1 0.00820203 0.0142763 0.023351 0.0015 
120 1 0.0160386 0.0152653 0.0233627 0.001 
59 1 0.009673 0.0183295 0.0234536 0.0005 
164 1 0.0103022 0.0142354 0.0233737 0.0005 
237 1 0.00796636 0.0162991 0.0247859 0.0005 
342 1 0.010727 0.0177298 0.0227837 0.00075 
296 1 0.0128511 0.0184276 0.024827 0.00225 
208 1 0.00907839 0.0184395 0.0275512 0.002 
450 1 0.010603 0.0142884 0.0246223 0.0005 
399 1 0.011358 0.0213309 0.0292294 0.0005 
463 1 0.00954205 0.0168642 0.024695 0.0005 
212 1 0.0211093 0.0204933 0.0232506 0.00175 
90 1 0.0178058 0.0165243 0.0232123 0.00075 
109 1 0.01995 0.0165655 0.0250493 0.0005 
334 1 0.0193129 0.0144496 0.0247599 0.00075 
172 1 0.0222037 0.0152678 0.0238977 0.001 
19 1 0.00618733 0.0223375 0.025298 0.00125 
223 1 0.00421595 0.0257176 0.0274566 0.00175 
175 1 0.00106044 0.0239126 0.0286311 0.0005 
245 1 0.00572946 0.0282476 0.0254966 0.0015 
503 1 0.00164549 0.0250181 0.0245571 0.0005 
508 1 0.00795711 0.0230495 0.0234411 0.0005 
436 1 0.000763102 0.0256487 0.0293648 0.0005 
529 1 0.00777436 0.0248556 0.0244542 0.00125 
509 1 0.00839236 0.0212297 0.0253131 0.0005 
55 1 0.0149194 0.0269963 0.0288803 0.001 
189 1 0.012067 0.0232143 0.022802 0.0005 
118 1 0.0104937 0.0250962 0.0223519 0.00125 
476 1 0.0133492 0.0249363 0.0255919 0.00225 
236 1 0.0100153 0.0280008 0.0251424 0.002 
315 1 0.0183233 0.0269194 0.0232221 0.00075 
124 1 0.0227798 0.024938 0.0271182 0.00075 
279 1 0.0216548 0.027092 0.0245369 0.0005 
350 1 0.0217716 0.0235029 0.0243358 0.0015 
238 1 0.0228046 0.0264124 0.0257931 0.0005 
326 1 0.022077 0.027403 0.0232525 0.0005 
369 1 0.021582 0.0264979 0.0278602 0.00075 
523 1 0.016555 0.0233462 0.0230285 0.0005 
99 1 0.000780484 0.0307293 0.0289967 0.00075 
11 1 0.00607389 0.0340924 0.0282675 0.00075 
145 1 0.00192781 0.0331249 0.0283361 0.0015 
382 1 0.00329309 0.0348727 0.0243986 0.00075 
338 1 0.00325704 0.0303397 0.0249139 0.00175 
278 1 0.00683952 0.0296888 0.0278882 0.0005 
286 1 0.0080062 0.030696 0.0276552 0.001 
483 1 0.00110869 0.0316827 0.0248807 0.0005 
430 1 0.00214061 0.0351347 0.023877 0.0005 
472 1 0.00106164 0.0352603 0.028684 0.0005 
517 1 0.0115813 0.0316671 0.0257071 0.0005 
343 1 0.0106196 0.0334513 0.0259568 0.00125 
412 1 0.0101173 0.0335332 0.0231668 0.001 
425 1 0.0136157 0.0343506 0.0238668 0.002 
494 1 0.0152814 0.0317281 0.0235014 0.00075 
500 1 0.0125182 0.0307504 0.0255676 0.00075 
304 1 0.0231408 0.0323522 0.0257461 0.0005 
144 1 0.0187241 0.031434 0.0235526 0.001 
221 1 0.0185185 0.0339864 0.0228525 0.0015 
415 1 0.0232652 0.0305545 0.024094 0.0005 
416 1 0.0230366 0.0289222 0.0257057 0.00075 
457 1 0.0172091 0.0290886 0.0249785 0.001 
471 1 0.0227437 0.0334893 0.0238766 0.00125 
492 1 0.0175161 0.0285628 0.023299 0.0005 
406 1 0.021333 0.0352329 0.0244863 0.001 
479 1 0.000499155 0.0383124 0.0249981 0.0005 
316 1 0.000667936 0.0372369 0.0268907 0.0005 
366 1 0.00684905 0.0385235 0.0225475 0.0005 
375 1 0.00181778 0.0413122 0.0286111 0.001 
462 1 0.0060647 0.0414064 0.025444 0.00125 
487 1 0.00288661 0.03967 0.0248682 0.00225 
506 1 0.00648519 0.0381977 0.0244234 0.0005 
519 1 0.000750389 0.038304 0.0231384 0.0005 
397 1 0.00830403 0.0388881 0.0277848 0.00175 
441 1 0.0133254 0.0400311 0.023904 0.0005 
444 1 0.00933963 0.041767 0.025531 0.00175 
453 1 0.0116215 0.0381199 0.0231811 0.002 
305 1 0.0150794 0.0384737 0.0237125 0.0015 
485 1 0.0149236 0.0407427 0.0233135 0.00075 
384 1 0.0222014 0.0370484 0.0255645 0.0005 
521 1 0.0186158 0.0376471 0.0258547 0.0005 
489 1 0.019949 0.0422348 0.0246303 0.00175 
536 1 0.0223543 0.0418728 0.0230771 0.0005 
383 1 0.00116343 0.0485903 0.028863 0.001 
37 1 0.00317165 0.0445542 0.0245403 0.002 
196 1 0.000511801 0.0481284 0.0244988 0.0005 
276 1 0.00540148 0.0476839 0.023135 0.0005 
378 1 0.00164308 0.0495269 0.0243706 0.001 
357 1 0.000771942 0.0462687 0.0241484 0.0005 
495 1 0.00578255 0.04572 0.0239525 0.00075 
525 1 0.000981812 0.0432973 0.02275 0.0005 
403 1 0.0125764 0.0426239 0.0233221 0.00225 
371 1 0.0109464 0.0452427 0.024684 0.0005 
424 1 0.00975106 0.045847 0.0250077 0.00075 
428 1 0.00822812 0.0490209 0.0253319 0.00075 
454 1 0.0109553 0.048653 0.0246247 0.00125 
467 1 0.0152102 0.0472999 0.025402 0.001 
475 1 0.00658599 0.0494266 0.0272296 0.001 
499 1 0.0155415 0.0444624 0.0230017 0.00125 
520 1 0.00834734 0.0446456 0.0258683 0.00075 
409 1 0.0181208 0.0486358 0.0287452 0.00125 
218 1 0.0229766 0.0477677 0.0237584 0.001 
426 1 0.0227178 0.0426543 0.0291531 0.00075 
456 1 0.0231829 0.0480459 0.0252422 0.0005 
504 1 0.0189402 0.0475414 0.0266298 0.00125 
531 1 0.0180899 0.0491155 0.0245326 0.0015 
314 1 0.00154543 0.0569314 0.0257826 0.00125 
116 1 0.000531803 0.0514717 0.0294782 0.0005 
226 1 0.000907315 0.0561029 0.023331 0.00075 
251 1 0.00186501 0.0526351 0.0229371 0.00125 
95 1 0.00353266 0.0490713 0.0271758 0.0005 
510 1 0.0046404 0.0496623 0.0257667 0.00125 
107 1 0.00233425 0.0562923 0.0290106 0.00075 
344 1 0.0119253 0.0525918 0.0270743 0.00075 
327 1 0.0107908 0.0512207 0.0229606 0.0015 
301 1 0.0147745 0.0523611 0.0239712 0.00125 
373 1 0.00804921 0.05545 0.0226504 0.00075 
446 1 0.00813497 0.0515534 0.0248721 0.00175 
201 1 0.0112632 0.0522867 0.0284127 0.0005 
491 1 0.0109893 0.0559676 0.0235057 0.00125 
303 1 0.0163922 0.0552835 0.0229464 0.00075 
321 1 0.0215022 0.0501907 0.0277511 0.00225 
193 1 0.016631 0.0523813 0.0272985 0.001 
114 1 0.0172572 0.0518253 0.0245618 0.001 
38 1 0.0203407 0.0561429 0.024008 0.00075 
258 1 0.0179429 0.0536354 0.0242117 0.0005 
341 1 0.0178536 0.0565634 0.0239507 0.00075 
349 1 0.01916 0.0510094 0.0236306 0.0005 
411 1 0.0230541 0.0545833 0.0250695 0.00075 
445 1 0.0218537 0.0513348 0.022473 0.0005 
480 1 0.0213949 0.0521684 0.0256635 0.0005 
232 1 0.000577137 0.0570423 0.0288796 0.0005 
119 1 0.00562085 0.0635094 0.0294707 0.0005 
205 1 0.00567319 0.0587248 0.0279179 0.00125 
96 1 0.00101562 0.0627718 0.0226732 0.0005 
103 1 0.00462273 0.0615663 0.0225655 0.0015 
140 1 0.00405508 0.0575795 0.0235987 0.0005 
270 1 0.0012806 0.0584667 0.0281273 0.00125 
194 1 0.000767974 0.0606173 0.0291783 0.00075 
352 1 0.00554655 0.0630333 0.0264731 0.00175 
53 1 0.00368536 0.0622402 0.0275654 0.0005 
532 1 0.00304555 0.0602431 0.0250324 0.0015 
250 1 0.0145853 0.0591388 0.024208 0.00125 
359 1 0.0140731 0.0617744 0.0265838 0.00075 
413 1 0.00963853 0.0610836 0.0255395 0.00125 
455 1 0.0136397 0.0621069 0.0225466 0.00175 
497 1 0.0103796 0.0591323 0.0229022 0.0005 
63 1 0.0221209 0.0580165 0.0277433 0.00175 
191 1 0.0222304 0.0579969 0.0241226 0.00175 
246 1 0.0177485 0.0615616 0.0280332 0.00175 
169 1 0.0222472 0.0610169 0.0273427 0.00125 
150 1 0.0187582 0.057989 0.0226819 0.00125 
131 1 0.0212848 0.0603085 0.0240659 0.0005 
224 1 0.022653 0.0635069 0.0276434 0.00125 
461 1 0.0166019 0.058955 0.0257546 0.00125 
355 1 0.0178087 0.0595283 0.0234834 0.0005 
469 1 0.0161593 0.0594269 0.0234473 0.0005 
477 1 0.0200013 0.0594021 0.0237462 0.0005 
478 1 0.0193559 0.0608375 0.025432 0.0005 
267 1 0.000825827 0.0650655 0.0258502 0.0005 
184 1 0.00370153 0.0646382 0.0238938 0.0005 
56 1 0.00108396 0.0676526 0.0222932 0.0005 
4 1 0.00675526 0.0676692 0.0282931 0.001 
407 1 0.00722075 0.0706963 0.0237444 0.00075 
132 1 0.000511312 0.0683806 0.023434 0.0005 
135 1 0.00731103 0.0668055 0.0233631 0.0005 
183 1 0.00135797 0.0690226 0.0232351 0.0005 
422 1 0.000804512 0.0659386 0.0253623 0.0005 
437 1 0.0017121 0.064181 0.0245354 0.001 
243 1 0.00158297 0.0676788 0.0248092 0.001 
464 1 0.00504128 0.0671264 0.0222177 0.0015 
528 1 0.00543177 0.0640987 0.0238161 0.00075 
302 1 0.00941224 0.0690967 0.0246885 0.0015 
376 1 0.0114169 0.0686361 0.0244864 0.0005 
68 1 0.013817 0.0684027 0.0279256 0.002 
214 1 0.00891445 0.0670119 0.0224726 0.0005 
339 1 0.0102298 0.0673757 0.0239139 0.0005 
358 1 0.0100404 0.0700221 0.0225333 0.00075 
398 1 0.00871521 0.0707463 0.0237368 0.0005 
420 1 0.013173 0.0702671 0.0247259 0.0015 
511 1 0.0127616 0.0646896 0.0256729 0.002 
111 1 0.0167463 0.0684668 0.0289519 0.001 
266 1 0.0177658 0.0669307 0.0244369 0.00175 
240 1 0.0182065 0.0708284 0.0291662 0.00075 
294 1 0.0228008 0.0692093 0.0239458 0.001 
336 1 0.0192535 0.0662649 0.0285928 0.00125 
65 1 0.0194574 0.0659653 0.0225596 0.0005 
297 1 0.0182769 0.070023 0.0240078 0.0005 
310 1 0.0215733 0.0702672 0.0280236 0.001 
317 1 0.019049 0.064772 0.0236566 0.0005 
377 1 0.0200842 0.0664727 0.0249578 0.0005 
385 1 0.0200443 0.0678346 0.0239578 0.00075 
429 1 0.0208001 0.0691018 0.023237 0.0005 
85 1 0.0231976 0.0708404 0.0231494 0.0005 
262 1 0.00670023 0.0725796 0.0234398 0.00075 
197 1 0.00285794 0.0733357 0.0263323 0.00125 
215 1 0.000719253 0.0759801 0.0221284 0.0005 
229 1 0.000752105 0.0743934 0.0289624 0.00075 
284 1 0.000751027 0.0768569 0.0282976 0.00075 
363 1 0.00291745 0.0707484 0.02438 0.002 
203 1 0.00582349 0.0769672 0.0289923 0.001 
295 1 0.0053829 0.0751966 0.0294142 0.0005 
50 1 0.00161985 0.0764758 0.0262223 0.0015 
22 1 0.00150143 0.0766997 0.0239275 0.00075 
127 1 0.00659006 0.0750761 0.023908 0.0005 
167 1 0.00099289 0.0735704 0.0242085 0.001 
283 1 0.00182532 0.0769532 0.0293555 0.0005 
468 1 0.00273252 0.0774455 0.0277539 0.0005 
513 1 0.00330861 0.0772003 0.024129 0.00075 
292 1 0.00819458 0.0754655 0.0246359 0.00075 
128 1 0.00978765 0.0739478 0.0270278 0.0005 
177 1 0.0124025 0.0739795 0.0284865 0.00075 
58 1 0.0121642 0.0763403 0.0271878 0.00075 
248 1 0.010378 0.0728219 0.0292837 0.0005 
440 1 0.0134401 0.0719321 0.0286126 0.0005 
23 1 0.0103932 0.0760192 0.0237942 0.00075 
206 1 0.0101642 0.0731346 0.0225662 0.0005 
298 1 0.00870493 0.0770949 0.0251635 0.0005 
393 1 0.011915 0.0752939 0.0251379 0.0005 
516 1 0.00871057 0.0735294 0.0242411 0.0005 
434 1 0.0153549 0.0773921 0.0283063 0.0005 
389 1 0.0204532 0.0739676 0.029503 0.0005 
458 1 0.0220128 0.0733384 0.0282217 0.0005 
21 1 0.0229535 0.0713721 0.0290992 0.00075 
234 1 0.0205183 0.0743884 0.0247963 0.001 
27 1 0.0209558 0.0759212 0.0279486 0.00125 
166 1 0.0225053 0.076936 0.0293365 0.0005 
83 1 0.0187513 0.0720778 0.0292679 0.0005 
207 1 0.0173881 0.0763569 0.0270259 0.0015 
253 1 0.0175127 0.0758222 0.0235227 0.0005 
391 1 0.0228749 0.0756607 0.0251345 0.001 
460 1 0.019909 0.0716753 0.0244651 0.0015 
539 1 0.00470228 0.0756377 0.0259611 0.00125 
540 1 0.00482476 0.0574373 0.0215517 0.00125 
541 1 0.0215565 0.0630088 0.0247315 0.001 
542 1 0.00891491 0.00275717 0.0222899 0.00075 
543 1 0.00704908 0.0320307 0.0248071 0.00125 
544 1 0.0212684 0.00727408 0.0222658 0.001 
545 1 0.00579824 0.0359009 0.0243598 0.001 
546 1 0.00652712 0.069125 0.0239796 0.0005 
