ITEM: TIMESTEP
380000
ITEM: NUMBER OF ATOMS
3023
ITEM: BOX BOUNDS mm mm mm
-2.4e-06 0.0240024
-7.8e-06 0.0780078
-3e-06 0.030003
ITEM: ATOMS id type x y z radius 
291 1 0.00414062 0.00219292 0.0214999 0.0015 
368 1 0.000499994 0.00160335 0.0205 0.0005 
784 1 0.00589051 0.00405236 0.02075 0.00075 
32 1 0.00571804 0.000711135 0.0205 0.0005 
241 1 0.00576149 0.00283253 0.0205 0.0005 
815 1 0.00369085 0.00051535 0.0205 0.0005 
448 1 0.00461454 0.00400262 0.0205 0.0005 
300 1 0.000500784 0.000505981 0.0205 0.0005 
442 1 0.00172448 0.00261961 0.0210002 0.001 
816 1 0.0064414 0.00552123 0.0205 0.0005 
710 1 0.0047383 0.000510867 0.0205 0.0005 
527 1 0.00105268 0.00556476 0.0205 0.0005 
100 1 0.00629105 0.00283875 0.021743 0.0005 
153 1 0.0058616 0.00173351 0.0205 0.0005 
722 1 0.00246171 0.00620453 0.0205021 0.0005 
864 1 0.00629516 0.00151284 0.0213999 0.0005 
503 1 0.000554939 0.0034193 0.0205 0.0005 
561 1 0.00690367 0.00239053 0.0207499 0.00075 
501 1 0.00690017 0.000718454 0.0214541 0.0005 
64 1 0.00693478 0.00685597 0.021 0.001 
954 1 0.00669549 0.000499992 0.0205 0.0005 
380 1 0.00553681 0.00706928 0.0204999 0.0005 
587 1 0.000512077 0.00148349 0.0214927 0.0005 
370 1 0.00781864 0.00120203 0.0207497 0.00075 
28 1 0.00195239 0.000798924 0.0207525 0.00075 
220 1 0.00793434 0.000749656 0.0221746 0.00075 
2736 1 0.00328211 0.00419875 0.0205061 0.0005 
998 1 0.00149682 0.00648211 0.021248 0.00075 
842 1 0.00701795 0.00648757 0.0224547 0.0005 
2921 1 0.000949143 0.00310636 0.0226738 0.0005 
2924 1 0.00231341 0.00505436 0.0205 0.0005 
390 1 0.00237146 0.00281665 0.0223443 0.0005 
307 1 0.00838118 0.00229486 0.0205 0.0005 
870 1 0.00832139 0.00643522 0.0205 0.0005 
324 1 0.00831931 0.00438958 0.0219998 0.002 
1195 1 0.00915161 0.00166278 0.0214776 0.0005 
121 1 0.00931823 0.00652343 0.0205 0.0005 
228 1 0.00985481 0.0056763 0.0205 0.0005 
490 1 0.0102843 0.00476912 0.0205 0.0005 
199 1 0.0117953 0.00352791 0.0205 0.0005 
395 1 0.0109065 0.00297622 0.0205 0.0005 
474 1 0.0140717 0.00192567 0.0207495 0.00075 
282 1 0.0106218 0.00153053 0.0204995 0.0005 
590 1 0.00982938 0.000500013 0.0205 0.0005 
176 1 0.013797 0.000500622 0.0205 0.0005 
289 1 0.0113248 0.00051366 0.0204999 0.0005 
362 1 0.00882922 0.000500553 0.0205 0.0005 
783 1 0.0111851 0.00433478 0.0204998 0.0005 
51 1 0.0133923 0.00318055 0.0205 0.0005 
233 1 0.00980417 0.00244181 0.0207499 0.00075 
217 1 0.0111152 0.00533183 0.0205 0.0005 
549 1 0.0106138 0.00516432 0.0213587 0.0005 
126 1 0.0128046 0.00494875 0.0214999 0.0015 
676 1 0.0105779 0.000749636 0.0214739 0.00075 
209 1 0.014048 0.00615328 0.0204994 0.0005 
730 1 0.00900353 0.0015121 0.0205 0.0005 
764 1 0.0108644 0.00689344 0.0212499 0.00125 
311 1 0.0146335 0.00670486 0.0217647 0.001 
763 1 0.0102171 0.00370057 0.0205 0.0005 
66 1 0.0145638 0.0049974 0.0205 0.0005 
61 1 0.0150144 0.00589017 0.0205 0.0005 
108 1 0.0151571 0.00352887 0.0212497 0.00125 
89 1 0.00904998 0.000504671 0.0214753 0.0005 
155 1 0.0121364 0.00198245 0.0212499 0.00125 
178 1 0.0150112 0.000750152 0.02075 0.00075 
364 1 0.0109491 0.00367616 0.0215352 0.00075 
895 1 0.0116657 0.000500019 0.022052 0.0005 
598 1 0.0132166 0.000504414 0.0213754 0.0005 
161 1 0.0232502 0.00074986 0.0207498 0.00075 
159 1 0.0228924 0.0034211 0.0205 0.0005 
204 1 0.0235 0.00543595 0.0205 0.0005 
219 1 0.0215366 0.00099994 0.0209997 0.001 
333 1 0.02325 0.0044123 0.0211724 0.00075 
142 1 0.0232501 0.00224975 0.0207499 0.00075 
200 1 0.0203303 0.00286964 0.02075 0.00075 
340 1 0.0216141 0.00455408 0.0207499 0.00075 
452 1 0.0235001 0.00643794 0.0204998 0.0005 
518 1 0.0197507 0.00075099 0.02075 0.00075 
185 1 0.0165815 0.00558324 0.0212499 0.00125 
31 1 0.0169961 0.00149986 0.0214998 0.0015 
123 1 0.0229181 0.0010255 0.0224456 0.001 
273 1 0.0218869 0.00301473 0.0215362 0.001 
113 1 0.0169304 0.00333899 0.0205 0.0005 
544 1 0.0188869 0.00420648 0.0209998 0.001 
577 1 0.0232501 0.00594933 0.0216226 0.00075 
652 1 0.0183203 0.00549416 0.0215201 0.0005 
290 1 0.0188839 0.00247234 0.02075 0.00075 
281 1 0.0204475 0.00398433 0.0217597 0.00075 
57 1 0.0202921 0.00621377 0.0214997 0.0015 
143 1 0.0224112 0.00598658 0.0205 0.0005 
853 1 0.0182005 0.00555056 0.0205 0.0005 
106 1 0.0221265 0.00541705 0.0214949 0.0005 
1012 1 0.0181243 0.00674001 0.021792 0.00075 
109 1 0.0185782 0.00650913 0.0205 0.0005 
256 1 0.00142218 0.00794589 0.0205 0.0005 
75 1 0.00256387 0.00750235 0.02075 0.00075 
887 1 0.007142 0.00765027 0.0222581 0.0005 
1359 1 0.003942 0.00816835 0.0205 0.0005 
588 1 0.00488558 0.0078345 0.0205 0.0005 
360 1 0.00663953 0.0126087 0.0205 0.0005 
154 1 0.00526176 0.00907374 0.02075 0.00075 
13 1 0.000500491 0.00845977 0.0205202 0.0005 
879 1 0.0058715 0.00801158 0.0205 0.0005 
137 1 0.00106339 0.0092877 0.0205 0.0005 
44 1 0.00531362 0.0106081 0.02075 0.00075 
1166 1 0.00606807 0.00819828 0.0217202 0.00075 
1234 1 0.00585463 0.00943828 0.0217883 0.0005 
323 1 0.0029627 0.0099192 0.0219997 0.002 
820 1 0.000996208 0.0102854 0.0205 0.0005 
1067 1 0.00784948 0.0128139 0.0205 0.0005 
713 1 0.00258307 0.0120193 0.0205 0.0005 
881 1 0.000501888 0.0111616 0.0205 0.0005 
943 1 0.00422091 0.0118147 0.0205 0.0005 
673 1 0.00539714 0.0121592 0.0207497 0.00075 
174 1 0.00121608 0.012384 0.0209999 0.001 
447 1 0.00624165 0.00980887 0.0205002 0.0005 
737 1 0.00571251 0.0134032 0.0205 0.0005 
508 1 0.000499995 0.0136035 0.0205 0.0005 
872 1 0.00758413 0.0116062 0.02075 0.00075 
891 1 0.00683833 0.00826697 0.0205 0.0005 
1190 1 0.00542748 0.0101465 0.0223505 0.0005 
479 1 0.000500099 0.0135066 0.0216905 0.0005 
911 1 0.00494356 0.011406 0.0216381 0.0005 
296 1 0.00372805 0.0141534 0.0222497 0.00225 
35 1 0.00787049 0.00955215 0.0216327 0.0015 
2621 1 0.00632979 0.0113424 0.0205 0.0005 
1032 1 0.00610901 0.0104963 0.0217077 0.0005 
1085 1 0.000750071 0.0115056 0.0224439 0.00075 
742 1 0.000499987 0.0102676 0.021368 0.0005 
274 1 0.00789099 0.0078977 0.0204999 0.0005 
427 1 0.00516347 0.00878279 0.0223558 0.0005 
1407 1 0.0008037 0.00777181 0.0215777 0.00075 
401 1 0.00652548 0.0120505 0.0223971 0.00125 
1617 1 0.00203876 0.00749418 0.0218873 0.0005 
2240 1 0.00185895 0.0121375 0.0223326 0.0005 
581 1 0.0126523 0.00710753 0.0221202 0.00075 
171 1 0.0132624 0.0071136 0.02075 0.00075 
1070 1 0.00835001 0.00729091 0.0219329 0.00075 
636 1 0.0122135 0.00776098 0.0205 0.0005 
275 1 0.0147071 0.00831994 0.02075 0.00075 
46 1 0.00913618 0.00777295 0.0207499 0.00075 
556 1 0.0139884 0.00963768 0.02075 0.00075 
287 1 0.0108679 0.0108807 0.0205 0.0005 
865 1 0.0137113 0.0123817 0.0205 0.0005 
756 1 0.01187 0.00946631 0.0214998 0.0015 
318 1 0.0137151 0.00823217 0.0218716 0.00075 
686 1 0.00960263 0.00892451 0.0205 0.0005 
10 1 0.0156692 0.00907774 0.0205 0.0005 
569 1 0.0126788 0.0111351 0.0205 0.0005 
252 1 0.0086505 0.0110038 0.0204998 0.0005 
188 1 0.0151585 0.0131888 0.021621 0.0015 
772 1 0.0127324 0.0121473 0.0205001 0.0005 
709 1 0.00985474 0.0101407 0.02075 0.00075 
1061 1 0.0117523 0.0116055 0.0205 0.0005 
1118 1 0.00976035 0.0100984 0.0219957 0.0005 
59 1 0.0118734 0.0126708 0.0205 0.0005 
974 1 0.0115773 0.0138838 0.0205 0.0005 
734 1 0.0129062 0.0133596 0.0207503 0.00075 
968 1 0.012429 0.0116855 0.0216217 0.00075 
62 1 0.00984904 0.0126045 0.0219999 0.002 
1238 1 0.0104774 0.008434 0.0205 0.0005 
1028 1 0.0139669 0.0111375 0.0207499 0.00075 
1653 1 0.0146417 0.00964498 0.0218156 0.0005 
80 1 0.0155756 0.010489 0.0209999 0.001 
810 1 0.00961159 0.00819734 0.0221082 0.00075 
1080 1 0.0140179 0.0113489 0.022234 0.00075 
192 1 0.0158835 0.00738941 0.0207496 0.00075 
1056 1 0.0159754 0.011407 0.022117 0.0005 
1883 1 0.0153132 0.0106467 0.0224698 0.0005 
714 1 0.0161812 0.0118275 0.0205 0.0005 
1922 1 0.0165627 0.00845143 0.0205 0.0005 
6 1 0.022469 0.00739684 0.0210164 0.001 
190 1 0.0173857 0.00752606 0.0207498 0.00075 
1846 1 0.0165807 0.00948908 0.0205 0.0005 
342 1 0.0171537 0.0126184 0.0207499 0.00075 
319 1 0.0211041 0.0077439 0.0205 0.0005 
293 1 0.018895 0.0111288 0.0217498 0.00175 
735 1 0.0208519 0.0100351 0.0215296 0.0005 
308 1 0.0201686 0.00880797 0.0209997 0.001 
49 1 0.0172307 0.010255 0.0205 0.0005 
146 1 0.0193415 0.00766107 0.0204996 0.0005 
578 1 0.0230001 0.0093249 0.0209999 0.001 
90 1 0.0186199 0.00810825 0.0214166 0.00075 
71 1 0.0216366 0.00865385 0.0205 0.0005 
659 1 0.0177584 0.00913935 0.0207499 0.00075 
967 1 0.0169952 0.0112282 0.0205 0.0005 
130 1 0.0211991 0.0122211 0.0205 0.0005 
41 1 0.0217151 0.0104927 0.02075 0.00075 
231 1 0.0235 0.0106506 0.0205 0.0005 
279 1 0.0235 0.00816293 0.021806 0.0005 
693 1 0.0212351 0.00797104 0.0216504 0.0005 
725 1 0.0227251 0.0116029 0.02075 0.00075 
697 1 0.0205239 0.0101778 0.0205 0.0005 
330 1 0.0223929 0.0130944 0.0207498 0.00075 
800 1 0.0207648 0.0113006 0.0205 0.0005 
538 1 0.0234979 0.0125536 0.0205 0.0005 
1236 1 0.0179534 0.013456 0.022129 0.0005 
812 1 0.021583 0.0123602 0.0214128 0.0005 
944 1 0.0234998 0.01379 0.0214854 0.0005 
794 1 0.0171141 0.0129413 0.0219567 0.0005 
592 1 0.0182889 0.0130976 0.0205001 0.0005 
910 1 0.0215733 0.00912578 0.0219933 0.00075 
523 1 0.0188239 0.0140197 0.0205 0.0005 
956 1 0.0192877 0.0129649 0.0205 0.0005 
350 1 0.020553 0.0141499 0.0214997 0.0015 
639 1 0.0225521 0.0141083 0.0214632 0.0005 
1899 1 0.0167225 0.0116183 0.021381 0.0005 
1138 1 0.0225459 0.0107006 0.0219815 0.00075 
272 1 0.023499 0.0136201 0.0205 0.0005 
770 1 0.0234997 0.0114663 0.0217214 0.0005 
1517 1 0.0211965 0.0114324 0.0213923 0.0005 
1498 1 0.0186793 0.0134655 0.0213453 0.0005 
1575 1 0.0218127 0.00791972 0.0224698 0.0005 
2494 1 0.0189266 0.0133091 0.0223032 0.0005 
646 1 0.00145101 0.0141916 0.0205 0.0005 
521 1 0.000863343 0.014214 0.0222981 0.0005 
439 1 0.00708195 0.0142006 0.0212499 0.00125 
196 1 0.000524169 0.0143541 0.0211602 0.0005 
782 1 0.000500004 0.0150472 0.0218806 0.0005 
70 1 0.000500485 0.0151047 0.0205 0.0005 
888 1 0.00336152 0.016406 0.0205 0.0005 
550 1 0.0027587 0.01745 0.0204998 0.0005 
1 1 0.007322 0.0161867 0.02075 0.00075 
529 1 0.00125468 0.0164947 0.0212498 0.00125 
269 1 0.00698975 0.0182321 0.0212499 0.00125 
19 1 0.00463754 0.0173852 0.0212499 0.00125 
1077 1 0.00609201 0.0166433 0.0205 0.0005 
1004 1 0.00609599 0.0199878 0.0207555 0.00075 
688 1 0.000499996 0.0199262 0.0205 0.0005 
896 1 0.00730966 0.0201933 0.0205 0.0005 
1660 1 0.00540848 0.0189392 0.0205 0.0005 
972 1 0.00606771 0.0159273 0.0215483 0.00075 
223 1 0.00367852 0.0202093 0.0217499 0.00175 
315 1 0.00271959 0.0177795 0.0217047 0.00075 
576 1 0.000766247 0.0183854 0.02075 0.00075 
1094 1 0.00605112 0.0196561 0.0223108 0.00075 
1884 1 0.000507007 0.0197178 0.021478 0.0005 
430 1 0.00200533 0.0182078 0.0205 0.0005 
1829 1 0.00608679 0.0169501 0.0222721 0.0005 
1388 1 0.000749973 0.0205606 0.0224033 0.00075 
611 1 0.0086806 0.0143165 0.0205 0.0005 
110 1 0.0141887 0.0145314 0.0205 0.0005 
2226 1 0.0134449 0.014379 0.0212334 0.0005 
877 1 0.00986633 0.0199528 0.0205 0.0005 
1859 1 0.00825734 0.0198537 0.0205011 0.0005 
1570 1 0.0084523 0.0188699 0.0205044 0.0005 
695 1 0.00849346 0.0154481 0.0219243 0.00075 
54 1 0.00880757 0.0171672 0.0220398 0.001 
786 1 0.00989802 0.0151055 0.0221464 0.0005 
118 1 0.0150303 0.0159106 0.0212499 0.00125 
717 1 0.0126092 0.0187989 0.0205 0.0005 
1232 1 0.0107017 0.0145383 0.0205283 0.0005 
934 1 0.0137314 0.0193096 0.02075 0.00075 
1310 1 0.0136731 0.0174071 0.0205 0.0005 
1212 1 0.0150574 0.0185491 0.0205 0.0005 
624 1 0.0121568 0.0153213 0.0210035 0.0005 
1035 1 0.012138 0.0173166 0.020977 0.0005 
1592 1 0.0126153 0.0198141 0.0205 0.0005 
1697 1 0.00989946 0.0209579 0.0204998 0.0005 
2033 1 0.013271 0.0202512 0.021431 0.0005 
1264 1 0.011362 0.0209093 0.0205 0.0005 
1164 1 0.0125803 0.0210396 0.02075 0.00075 
982 1 0.0149765 0.0203531 0.0204999 0.0005 
1448 1 0.0129879 0.0179939 0.0209614 0.0005 
2386 1 0.0141717 0.0181059 0.0215293 0.00075 
2420 1 0.0137773 0.0205931 0.0205006 0.0005 
2431 1 0.0146844 0.0176066 0.0205008 0.0005 
2287 1 0.0148877 0.0192251 0.0212171 0.0005 
2500 1 0.0152176 0.0200163 0.0217347 0.0005 
2378 1 0.0143772 0.0203402 0.0213002 0.0005 
2447 1 0.01415 0.0196496 0.0223178 0.00075 
2086 1 0.0134825 0.0171611 0.0219714 0.0005 
1311 1 0.0155309 0.0195209 0.0205 0.0005 
2645 1 0.0153574 0.0177084 0.0214397 0.0005 
1376 1 0.00884951 0.0195913 0.0212961 0.0005 
2392 1 0.0125874 0.0175951 0.0218444 0.0005 
1757 1 0.0151183 0.0210024 0.0218674 0.0005 
2594 1 0.0137572 0.021123 0.0213503 0.0005 
2618 1 0.01513 0.0173894 0.0223659 0.0005 
2897 1 0.00943662 0.0190417 0.0205481 0.0005 
1338 1 0.0157009 0.0177836 0.0205015 0.0005 
2978 1 0.00942393 0.0153128 0.0207549 0.00075 
2989 1 0.0114142 0.0195531 0.0211041 0.0005 
2598 1 0.0156967 0.0187799 0.0224358 0.001 
43 1 0.0160648 0.0145891 0.0204999 0.0005 
78 1 0.0227522 0.0142862 0.0204999 0.0005 
2511 1 0.0162901 0.0169685 0.0205002 0.0005 
2117 1 0.0168645 0.0155419 0.021676 0.0005 
189 1 0.0166213 0.0155358 0.0205 0.0005 
2460 1 0.0161135 0.0187082 0.0205 0.0005 
139 1 0.0174481 0.0143244 0.0210156 0.001 
1193 1 0.0187292 0.014978 0.0214769 0.0005 
345 1 0.0190516 0.0150212 0.0205 0.0005 
741 1 0.0179239 0.0155491 0.0217443 0.0005 
450 1 0.0181863 0.0155247 0.0205 0.0005 
947 1 0.0176757 0.017678 0.0205 0.0005 
591 1 0.0222612 0.0154082 0.02075 0.00075 
465 1 0.0184758 0.017078 0.0204997 0.0005 
719 1 0.0189292 0.0161916 0.0212548 0.00075 
628 1 0.0235002 0.0166063 0.0204998 0.0005 
42 1 0.0223294 0.0169651 0.0207499 0.00075 
747 1 0.0210933 0.0157965 0.0205 0.0005 
813 1 0.0201265 0.016655 0.0205 0.0005 
787 1 0.0185972 0.0180702 0.0204999 0.0005 
492 1 0.0194337 0.0173761 0.0205 0.0005 
238 1 0.0235 0.0176652 0.0205 0.0005 
1216 1 0.0198603 0.0172513 0.0217742 0.00075 
1230 1 0.017411 0.0164737 0.02075 0.00075 
566 1 0.0207047 0.0179496 0.0207499 0.00075 
1333 1 0.0211165 0.0167962 0.0205 0.0005 
1091 1 0.0195519 0.018369 0.0205 0.0005 
1398 1 0.0211218 0.0201293 0.0205 0.0005 
1189 1 0.0234955 0.0147366 0.0209944 0.0005 
1427 1 0.0198005 0.0157096 0.0204996 0.0005 
898 1 0.0188515 0.0179166 0.0214546 0.0005 
1452 1 0.0200095 0.019505 0.0207499 0.00075 
1488 1 0.0184626 0.019287 0.0207506 0.00075 
1124 1 0.0235 0.0156058 0.0205 0.0005 
1020 1 0.0225001 0.0190794 0.0215 0.0015 
1401 1 0.0213989 0.0164399 0.0221356 0.001 
1298 1 0.0201736 0.0161092 0.0213366 0.0005 
1170 1 0.0232327 0.0161404 0.0216281 0.00075 
1831 1 0.017677 0.0184338 0.0212272 0.0005 
957 1 0.0234451 0.0207574 0.0204999 0.0005 
1320 1 0.0187707 0.0207547 0.02075 0.00075 
1598 1 0.0199865 0.0205692 0.021405 0.0005 
1437 1 0.0235001 0.0208114 0.0214967 0.0005 
1184 1 0.0235 0.0173482 0.0214484 0.0005 
1692 1 0.0193598 0.0187743 0.0215331 0.0005 
1828 1 0.0181838 0.0171721 0.0215077 0.0005 
1202 1 0.0207027 0.0199339 0.0216973 0.0005 
1460 1 0.0208478 0.0209204 0.0217716 0.0005 
1984 1 0.0190182 0.0199429 0.0216674 0.0005 
1738 1 0.0171076 0.0188171 0.0205 0.0005 
1648 1 0.0168595 0.020379 0.0212499 0.00125 
2467 1 0.0166968 0.0178822 0.0205001 0.0005 
1963 1 0.0183644 0.0205431 0.0221277 0.0005 
1434 1 0.0232501 0.0147778 0.0222547 0.00075 
1796 1 0.0198525 0.0195062 0.0220038 0.0005 
1105 1 0.020365 0.0207904 0.0205 0.0005 
1865 1 0.0166476 0.0184478 0.0213241 0.0005 
1767 1 0.0209313 0.0179232 0.0219789 0.0005 
1929 1 0.0204106 0.0187481 0.0216655 0.0005 
2072 1 0.0235 0.0176059 0.0224147 0.0005 
2099 1 0.0198157 0.0159705 0.0222601 0.0005 
838 1 0.0167395 0.0169284 0.0223012 0.001 
678 1 0.00133103 0.0214296 0.0209999 0.001 
700 1 0.00590123 0.021476 0.02075 0.00075 
1293 1 0.00274499 0.0218612 0.0205 0.0005 
1416 1 0.00376969 0.0220884 0.0205 0.0005 
1578 1 0.00513766 0.0222273 0.0213941 0.0005 
482 1 0.000500087 0.0225742 0.0205 0.0005 
12 1 0.00217303 0.0230168 0.02075 0.00075 
952 1 0.00635745 0.0248237 0.0205 0.0005 
1439 1 0.00731803 0.023805 0.02075 0.00075 
831 1 0.00508267 0.0236735 0.0209997 0.001 
534 1 0.000821836 0.0237555 0.0207525 0.00075 
1423 1 0.00178199 0.0266971 0.0218076 0.0005 
1406 1 0.000720982 0.0261104 0.0205 0.0005 
483 1 0.000500231 0.0270858 0.0205001 0.0005 
1483 1 0.00727745 0.0225524 0.0205 0.0005 
1512 1 0.00359473 0.0253758 0.0205036 0.0005 
752 1 0.0057987 0.0264458 0.0204997 0.0005 
1805 1 0.00335604 0.0241675 0.02075 0.00075 
1576 1 0.000500009 0.0249367 0.0205 0.0005 
1373 1 0.00693166 0.0259826 0.0207494 0.00075 
1860 1 0.00476387 0.0219808 0.0205 0.0005 
1625 1 0.00050149 0.0227313 0.0214876 0.0005 
1455 1 0.00190472 0.0251143 0.021 0.001 
1942 1 0.00645974 0.0226864 0.0214376 0.00075 
1926 1 0.000504654 0.0241077 0.0219101 0.0005 
1520 1 0.00685176 0.0274102 0.0209159 0.0005 
1143 1 0.00381493 0.0274364 0.0207517 0.00075 
2021 1 0.00764995 0.0269745 0.0204999 0.0005 
980 1 0.00594215 0.0274354 0.0205 0.0005 
1825 1 0.000499996 0.0255533 0.0213004 0.0005 
2481 1 0.00741469 0.0281244 0.0205 0.0005 
2583 1 0.00459655 0.0254326 0.0205 0.0005 
1893 1 0.00114464 0.0247969 0.0222564 0.0005 
2706 1 0.000499904 0.0255602 0.0223003 0.0005 
348 1 0.00291289 0.0266093 0.0204995 0.0005 
775 1 0.00542775 0.0256477 0.0220278 0.00125 
1662 1 0.00351264 0.0228342 0.0214697 0.00075 
2168 1 0.00698701 0.0269651 0.0222925 0.00075 
1702 1 0.000499999 0.0282196 0.0219685 0.0005 
2244 1 0.00198342 0.026921 0.0206949 0.0005 
2852 1 0.00487254 0.0268209 0.0204998 0.0005 
2884 1 0.00334517 0.0260563 0.0212111 0.0005 
2920 1 0.0058518 0.0273347 0.021733 0.0005 
1474 1 0.00489979 0.0220169 0.0223423 0.0005 
1449 1 0.00257747 0.0277623 0.0205 0.0005 
1285 1 0.000776977 0.0282791 0.020751 0.00075 
2833 1 0.00432469 0.0270354 0.0218443 0.0005 
2427 1 0.00518154 0.0280853 0.0205004 0.0005 
1991 1 0.00664934 0.0238309 0.0223892 0.00075 
2565 1 0.00782165 0.0231321 0.0224271 0.0005 
2449 1 0.00703442 0.0282453 0.0215578 0.0005 
600 1 0.00839179 0.021431 0.0212515 0.00125 
1144 1 0.00995701 0.022078 0.0217699 0.0005 
1577 1 0.0137916 0.0216672 0.0205 0.0005 
1650 1 0.00813391 0.0231978 0.0214783 0.0005 
946 1 0.00817073 0.0250827 0.0220342 0.00125 
904 1 0.00849574 0.024271 0.0205 0.0005 
1081 1 0.00841359 0.0262235 0.0205 0.0005 
1343 1 0.0106626 0.0219153 0.020751 0.00075 
1394 1 0.00957394 0.0233286 0.021 0.001 
1698 1 0.00964302 0.0255099 0.02075 0.00075 
1342 1 0.0108461 0.0247752 0.0216185 0.00075 
978 1 0.0104375 0.0264415 0.0204997 0.0005 
1208 1 0.0103512 0.0245098 0.0204999 0.0005 
1350 1 0.0134784 0.0236907 0.0205 0.0005 
919 1 0.0092728 0.027905 0.0217497 0.00175 
780 1 0.0128632 0.0256532 0.0205 0.0005 
353 1 0.014939 0.0238629 0.0205 0.0005 
1294 1 0.0128217 0.0228441 0.0204999 0.0005 
1180 1 0.0120523 0.0221948 0.0205 0.0005 
1462 1 0.0115661 0.0257748 0.0213927 0.0005 
1467 1 0.0123123 0.0239837 0.0205 0.0005 
1552 1 0.0131572 0.0222062 0.0215211 0.00075 
1602 1 0.011409 0.026206 0.0204998 0.0005 
1621 1 0.0126733 0.0252585 0.0216706 0.00075 
861 1 0.0142484 0.0248754 0.0207501 0.00075 
1643 1 0.0119158 0.0253331 0.0205 0.0005 
1539 1 0.0130412 0.0246687 0.0205 0.0005 
1330 1 0.0139899 0.0237992 0.0213523 0.0005 
1192 1 0.014823 0.0260573 0.0205 0.0005 
1614 1 0.0113225 0.0232622 0.0207503 0.00075 
1693 1 0.0156148 0.022718 0.0204996 0.0005 
1618 1 0.0113807 0.0244875 0.0205 0.0005 
1221 1 0.0143412 0.0227619 0.0207499 0.00075 
1915 1 0.013796 0.0260135 0.0205 0.0005 
1869 1 0.0108609 0.0253699 0.0205004 0.0005 
2193 1 0.0110263 0.0272514 0.0205 0.0005 
2263 1 0.0138328 0.0258 0.0214817 0.0005 
2270 1 0.012624 0.0272157 0.0212517 0.00125 
1753 1 0.0155546 0.0238111 0.0214193 0.0005 
862 1 0.0143624 0.0274271 0.0204999 0.0005 
1775 1 0.0144893 0.0219273 0.0216862 0.0005 
2004 1 0.0142718 0.0266432 0.021114 0.0005 
1958 1 0.0143765 0.0277261 0.021454 0.0005 
2243 1 0.0157138 0.0269154 0.02075 0.00075 
1017 1 0.0152274 0.0215517 0.0207499 0.00075 
2348 1 0.0148621 0.0230649 0.021845 0.0005 
1955 1 0.0150623 0.0262536 0.0215866 0.0005 
144 1 0.0159504 0.0251968 0.0209999 0.001 
1563 1 0.0159223 0.0236712 0.0205 0.0005 
2603 1 0.0128228 0.0235497 0.0212422 0.0005 
2121 1 0.0105576 0.026017 0.0214398 0.0005 
2261 1 0.0153684 0.0278176 0.0215431 0.0005 
2026 1 0.0111281 0.0266504 0.0219656 0.0005 
2662 1 0.0138818 0.0230815 0.0220419 0.0005 
2201 1 0.0119654 0.0242653 0.0213946 0.0005 
2403 1 0.0114509 0.0283531 0.0224069 0.0005 
1935 1 0.011299 0.0282571 0.0205 0.0005 
2010 1 0.0132186 0.0241625 0.0219262 0.0005 
1931 1 0.0113736 0.0256168 0.02238 0.0005 
2419 1 0.0150369 0.0270865 0.0221397 0.0005 
1768 1 0.0158681 0.0281304 0.0205 0.0005 
2097 1 0.00983587 0.0246103 0.0223379 0.0005 
2681 1 0.0151862 0.021777 0.0225099 0.0005 
1655 1 0.012046 0.0232311 0.0224853 0.001 
2143 1 0.00891111 0.0234561 0.022341 0.0005 
1794 1 0.0162744 0.0225598 0.021837 0.001 
1219 1 0.022006 0.0214784 0.0209997 0.001 
152 1 0.0208721 0.0235746 0.0204999 0.0005 
1292 1 0.01713 0.0239267 0.02075 0.00075 
512 1 0.0190555 0.026883 0.0205 0.0005 
1288 1 0.0164035 0.0218926 0.0204998 0.0005 
1048 1 0.018002 0.0220427 0.0207501 0.00075 
1415 1 0.0215069 0.0228018 0.0205 0.0005 
1087 1 0.023498 0.025397 0.0205 0.0005 
1176 1 0.0182935 0.0259245 0.0207512 0.00075 
1269 1 0.0232502 0.0226829 0.0207499 0.00075 
1507 1 0.0234999 0.0248072 0.0218089 0.0005 
1574 1 0.0235002 0.0265249 0.0204997 0.0005 
1472 1 0.0232502 0.0241921 0.0207498 0.00075 
1590 1 0.0222727 0.0249298 0.0204999 0.0005 
1634 1 0.0186201 0.0237463 0.0207496 0.00075 
908 1 0.0222656 0.0234533 0.0205 0.0005 
1646 1 0.0169764 0.0227119 0.0204999 0.0005 
1927 1 0.0169239 0.0262275 0.0205 0.0005 
1897 1 0.0179168 0.0231555 0.021935 0.00075 
1370 1 0.0231057 0.0276856 0.0207499 0.00075 
1243 1 0.020123 0.0249671 0.0212498 0.00125 
1978 1 0.0173629 0.0251289 0.0204999 0.0005 
1881 1 0.0169273 0.0244561 0.021864 0.0005 
1514 1 0.0199221 0.0223112 0.0212504 0.00125 
1925 1 0.0216099 0.0242135 0.0207174 0.0005 
1527 1 0.0181235 0.0247848 0.0217113 0.00075 
1106 1 0.0175125 0.0276983 0.0212499 0.00125 
1323 1 0.0190829 0.0278825 0.0205 0.0005 
1090 1 0.0223585 0.0261339 0.0217666 0.00125 
1837 1 0.0160404 0.0273659 0.0221359 0.0005 
1015 1 0.0217945 0.0277983 0.0205 0.0005 
1974 1 0.0235002 0.0281461 0.0218428 0.0005 
1267 1 0.020438 0.0271806 0.0209999 0.001 
2065 1 0.0189448 0.0238734 0.0219496 0.0005 
1910 1 0.0191982 0.0276282 0.021718 0.0005 
2198 1 0.0235 0.0273067 0.0223862 0.0005 
2162 1 0.0212276 0.0216936 0.0222821 0.0005 
2008 1 0.0187608 0.0282926 0.022325 0.0005 
1606 1 0.0187858 0.0263022 0.0224712 0.001 
2303 1 0.0183345 0.0217739 0.0223426 0.00075 
1480 1 0.00632191 0.0289159 0.0207498 0.00075 
1103 1 0.00510155 0.0290831 0.0205008 0.0005 
138 1 0.0076016 0.029108 0.0205 0.0005 
162 1 0.000639326 0.0323064 0.0205 0.0005 
259 1 0.00357223 0.0316992 0.0205 0.0005 
522 1 0.00175539 0.0336885 0.02075 0.00075 
337 1 0.00288864 0.0302557 0.0207499 0.00075 
638 1 0.00493593 0.033172 0.02075 0.00075 
506 1 0.000693067 0.0345039 0.0213239 0.0005 
1084 1 0.00140262 0.0304597 0.0207499 0.00075 
1355 1 0.00298413 0.0337091 0.0205 0.0005 
1451 1 0.00423198 0.0285872 0.0205 0.0005 
412 1 0.00218669 0.0320049 0.021 0.001 
1607 1 0.00154087 0.0292364 0.0205 0.0005 
1290 1 0.000500028 0.0294721 0.0205 0.0005 
1761 1 0.00630868 0.0346071 0.0205 0.0005 
1760 1 0.0036713 0.0329792 0.0205001 0.0005 
1611 1 0.00507774 0.0345994 0.0205 0.0005 
2278 1 0.00271473 0.0287559 0.0205 0.0005 
2306 1 0.0056303 0.031798 0.02075 0.00075 
2343 1 0.00587194 0.0301154 0.0205 0.0005 
2387 1 0.00685718 0.032661 0.02075 0.00075 
2407 1 0.0040707 0.0305819 0.0205 0.0005 
2421 1 0.00607403 0.0336312 0.0205 0.0005 
672 1 0.00723556 0.0354088 0.02075 0.00075 
2537 1 0.00423213 0.0295885 0.0205014 0.0005 
1872 1 0.00735945 0.030672 0.0212504 0.00125 
1792 1 0.0043384 0.0315809 0.0214805 0.00075 
2484 1 0.00567474 0.0309313 0.0216497 0.0005 
2573 1 0.00517392 0.029792 0.0215295 0.00075 
1993 1 0.00184029 0.0288935 0.0216642 0.00075 
2455 1 0.00756316 0.0334369 0.0214298 0.0005 
2622 1 0.00639589 0.0320313 0.0217855 0.0005 
1291 1 0.000750099 0.0332889 0.0217917 0.00075 
2548 1 0.00319864 0.0310894 0.0216281 0.0005 
2570 1 0.00564788 0.0326824 0.0216538 0.0005 
897 1 0.000500328 0.0339198 0.0205 0.0005 
1168 1 0.00382356 0.0329954 0.0217409 0.00075 
1136 1 0.00075006 0.0317987 0.0219778 0.00075 
2381 1 0.00403521 0.028864 0.0214418 0.0005 
2530 1 0.00394444 0.0300032 0.0213694 0.0005 
2154 1 0.000749974 0.0298788 0.0219691 0.00075 
535 1 0.00110093 0.0348974 0.0205 0.0005 
2604 1 0.00621951 0.0342397 0.0222122 0.00125 
2371 1 0.00201166 0.030827 0.0220999 0.0005 
2660 1 0.0048757 0.0307633 0.0222586 0.0005 
2423 1 0.00639138 0.0291524 0.0222419 0.00075 
2337 1 0.00790817 0.0335626 0.0204998 0.0005 
2626 1 0.00540285 0.0317339 0.0222031 0.0005 
2456 1 0.00786687 0.0324555 0.0219083 0.0005 
2628 1 0.00163596 0.0338874 0.0224405 0.0005 
2493 1 0.00833971 0.0351314 0.0212763 0.0005 
2772 1 0.00843905 0.0299276 0.0224469 0.0005 
2393 1 0.0113932 0.0285917 0.0214376 0.0005 
1987 1 0.0147599 0.0286033 0.0217425 0.0005 
1870 1 0.0140114 0.0287333 0.02075 0.00075 
2301 1 0.0126704 0.0290614 0.0220207 0.00075 
505 1 0.00854914 0.0296306 0.0205001 0.0005 
886 1 0.00899302 0.0305268 0.0205 0.0005 
1249 1 0.0131118 0.0330805 0.02075 0.00075 
1154 1 0.0109781 0.0325313 0.0204999 0.0005 
609 1 0.0119738 0.0326277 0.0205 0.0005 
1134 1 0.00832609 0.0323562 0.02075 0.00075 
1340 1 0.011391 0.0334419 0.0204999 0.0005 
1678 1 0.0122266 0.0339908 0.0205005 0.0005 
1703 1 0.0102344 0.0316189 0.0205 0.0005 
1095 1 0.0131715 0.0343173 0.0204998 0.0005 
1815 1 0.00924216 0.0314952 0.0205 0.0005 
1348 1 0.0127118 0.0303855 0.0204998 0.0005 
2043 1 0.0106552 0.029168 0.0205 0.0005 
1867 1 0.00879198 0.0336977 0.0213795 0.00075 
1793 1 0.0140468 0.0298968 0.0217503 0.00075 
2242 1 0.0116031 0.031263 0.021 0.001 
2245 1 0.00992871 0.0307145 0.0213073 0.00075 
2266 1 0.0127876 0.0287873 0.0204999 0.0005 
1954 1 0.01071 0.0301665 0.0205 0.0005 
1762 1 0.00894081 0.0314811 0.0214533 0.0005 
640 1 0.00977386 0.0327541 0.02075 0.00075 
2323 1 0.0126693 0.0351817 0.0204999 0.0005 
2362 1 0.0138964 0.0299812 0.0205 0.0005 
2347 1 0.0117431 0.0348484 0.0206751 0.0005 
1361 1 0.0150543 0.0303803 0.0207499 0.00075 
2202 1 0.0136636 0.031431 0.021 0.001 
2451 1 0.0118235 0.0295427 0.0207501 0.00075 
1083 1 0.0147409 0.0341279 0.0212499 0.00125 
835 1 0.00821979 0.0345127 0.0205 0.0005 
2305 1 0.0150799 0.0313149 0.0215796 0.0005 
2225 1 0.0096942 0.0297825 0.0205 0.0005 
2408 1 0.0131685 0.0349124 0.021324 0.0005 
2304 1 0.0103497 0.0343985 0.0209999 0.001 
2574 1 0.0131058 0.0296033 0.0209819 0.0005 
698 1 0.0151934 0.0322429 0.02075 0.00075 
2317 1 0.0111347 0.0298434 0.0223306 0.001 
2404 1 0.0124344 0.0339879 0.021735 0.00075 
2390 1 0.00910963 0.0323792 0.0218593 0.0005 
2376 1 0.012927 0.035014 0.0223946 0.0005 
2252 1 0.0122696 0.0325173 0.0214822 0.0005 
2577 1 0.0113235 0.0328285 0.0213916 0.0005 
2505 1 0.0126169 0.0302906 0.0215259 0.0005 
2439 1 0.0153874 0.032645 0.0219175 0.0005 
2247 1 0.0114848 0.0350287 0.0217538 0.0005 
1786 1 0.0152251 0.0288961 0.0204999 0.0005 
2469 1 0.00904132 0.0350951 0.0205 0.0005 
2412 1 0.0126508 0.031133 0.0220657 0.0005 
2345 1 0.0104595 0.0320636 0.0224322 0.001 
2297 1 0.0134397 0.0327621 0.022476 0.001 
2379 1 0.0119675 0.031809 0.0223487 0.0005 
2612 1 0.00839795 0.0346597 0.022156 0.0005 
2443 1 0.00940708 0.0300928 0.0222581 0.0005 
2585 1 0.0135742 0.0309947 0.0224323 0.0005 
2502 1 0.0145477 0.0316688 0.0223486 0.0005 
2161 1 0.015882 0.0316443 0.0224801 0.00075 
2887 1 0.009837 0.0334804 0.0220736 0.0005 
1854 1 0.0159742 0.0288977 0.0217122 0.00075 
2690 1 0.0119367 0.032806 0.0224382 0.0005 
1409 1 0.0162148 0.0290841 0.0204999 0.0005 
1113 1 0.0173156 0.0296247 0.02075 0.00075 
1044 1 0.0196296 0.0293662 0.0212498 0.00125 
557 1 0.0193446 0.0339473 0.0212499 0.00125 
304 1 0.0225029 0.0311287 0.0205 0.0005 
1142 1 0.0223462 0.034522 0.0205 0.0005 
1335 1 0.0170936 0.0329239 0.0205 0.0005 
1414 1 0.0234989 0.0349515 0.0205 0.0005 
1016 1 0.0230896 0.0322027 0.0207578 0.00075 
1531 1 0.0175922 0.0338093 0.0204999 0.0005 
1329 1 0.0234999 0.028847 0.0205 0.0005 
1318 1 0.0181021 0.0329292 0.0205 0.0005 
1305 1 0.0180653 0.0309238 0.0207499 0.00075 
1258 1 0.0233497 0.0298761 0.0205 0.0005 
1695 1 0.0175066 0.0352208 0.0209999 0.001 
1224 1 0.0164855 0.0314766 0.02075 0.00075 
878 1 0.0232502 0.0336939 0.0207498 0.00075 
1213 1 0.0190811 0.0320289 0.0207497 0.00075 
1447 1 0.0162074 0.030379 0.0217433 0.00075 
1603 1 0.0162738 0.0302686 0.0205 0.0005 
1403 1 0.0174399 0.0305843 0.0217775 0.0005 
1445 1 0.0235001 0.0310507 0.0204999 0.0005 
1362 1 0.0232434 0.0304999 0.0215921 0.00075 
1442 1 0.0179605 0.0293107 0.0217737 0.0005 
1626 1 0.0175711 0.0320444 0.0205 0.0005 
1534 1 0.0221239 0.029964 0.0207499 0.00075 
1579 1 0.0212853 0.0336559 0.02075 0.00075 
1468 1 0.0177685 0.0322635 0.02224 0.00125 
1227 1 0.0166953 0.0337192 0.0213861 0.00075 
1812 1 0.0235 0.0292925 0.0213952 0.0005 
2044 1 0.0160745 0.0330935 0.0204999 0.0005 
1699 1 0.0235 0.0329331 0.0217095 0.0005 
2478 1 0.0160396 0.0350355 0.0204999 0.0005 
2311 1 0.0190789 0.0310117 0.0214759 0.0005 
809 1 0.0210529 0.0316634 0.0217696 0.0015 
1420 1 0.0218217 0.0285482 0.0221298 0.00125 
2382 1 0.0183623 0.0302896 0.0220268 0.0005 
2235 1 0.0192131 0.0352673 0.0223913 0.0005 
1273 1 0.0218768 0.0354055 0.0205 0.0005 
2228 1 0.0192598 0.0308658 0.0224484 0.0005 
2508 1 0.020486 0.0334457 0.022478 0.0005 
1529 1 0.00576529 0.0357047 0.02075 0.00075 
1073 1 0.00766936 0.0375199 0.02075 0.00075 
249 1 0.00331584 0.0356857 0.0219997 0.002 
844 1 0.00504301 0.0366945 0.0205 0.0005 
366 1 0.00248574 0.0375094 0.0205 0.0005 
680 1 0.00465048 0.0378562 0.0207499 0.00075 
733 1 0.00245151 0.0412148 0.0205 0.0005 
1108 1 0.000749772 0.0398886 0.0207499 0.00075 
316 1 0.000514774 0.0367563 0.0205 0.0005 
1276 1 0.00247529 0.0397415 0.0209998 0.001 
91 1 0.00571107 0.0404559 0.0207499 0.00075 
2422 1 0.000501865 0.0410986 0.0205 0.0005 
2458 1 0.00432894 0.0394139 0.0205 0.0005 
1177 1 0.00401022 0.0413611 0.0212858 0.00125 
2542 1 0.00645312 0.0386037 0.02075 0.00075 
457 1 0.00122938 0.0381729 0.0209998 0.001 
451 1 0.00143168 0.0418958 0.02075 0.00075 