ITEM: TIMESTEP
20000
ITEM: NUMBER OF ATOMS
225
ITEM: BOX BOUNDS mm mm mm
-2.4e-06 0.0240024
-7.8e-06 0.0780078
-3e-06 0.030003
ITEM: ATOMS id type x y z radius 
199 1 0.00557769 0.000528756 0.021927 0.0005 
51 1 0.0152366 0.0046978 0.0212238 0.0005 
25 1 0.0123869 0.00391844 0.021674 0.00125 
161 1 0.0103628 0.000989221 0.0208634 0.00075 
178 1 0.00823517 0.0018667 0.021337 0.00075 
155 1 0.016566 0.00296283 0.0224236 0.00125 
159 1 0.0224536 0.00691144 0.0213742 0.0005 
204 1 0.019332 0.00188485 0.020819 0.0005 
100 1 0.0142174 0.00960397 0.0214098 0.0005 
97 1 0.0155223 0.00827035 0.0210742 0.001 
171 1 0.0178584 0.0083454 0.0212819 0.00075 
190 1 0.021944 0.0139422 0.0211233 0.00075 
30 1 0.00716734 0.0180671 0.0220534 0.001 
154 1 0.00899286 0.0159977 0.021365 0.00075 
120 1 0.0123873 0.0150593 0.0211811 0.001 
113 1 0.0179528 0.0145878 0.0217021 0.0005 
33 1 0.0195701 0.0186778 0.0222454 0.002 
209 1 0.0196892 0.014694 0.0210193 0.0005 
13 1 0.00213807 0.021503 0.0216119 0.0005 
28 1 0.0021724 0.0245705 0.0214807 0.00075 
44 1 0.00370174 0.0230763 0.0217381 0.00075 
66 1 0.00660634 0.0283254 0.0221891 0.0005 
62 1 0.00780001 0.0219443 0.0223351 0.002 
70 1 0.0107118 0.027461 0.0205552 0.0005 
49 1 0.0162498 0.0215498 0.0205634 0.0005 
42 1 0.0211865 0.0214905 0.0210472 0.00075 
212 1 0.0209054 0.0271042 0.0243012 0.00175 
36 1 0.00226392 0.0313546 0.0221508 0.00175 
78 1 0.0127552 0.0286822 0.0214588 0.0005 
54 1 0.0185771 0.0322748 0.022011 0.001 
152 1 0.0171463 0.0316619 0.0219306 0.0005 
3 1 0.00673508 0.0407756 0.0205 0.0005 
38 1 0.00474833 0.0411541 0.02294 0.00075 
138 1 0.0106405 0.0362982 0.0219045 0.0005 
37 1 0.00239125 0.0443921 0.0219998 0.002 
58 1 0.0103239 0.044307 0.0235128 0.00075 
88 1 0.0109563 0.0477789 0.0205573 0.0005 
105 1 0.0105741 0.0464815 0.0220168 0.0005 
136 1 0.0139593 0.0427677 0.0220075 0.00075 
165 1 0.0103533 0.0459721 0.0205843 0.0005 
112 1 0.0228242 0.0471896 0.02075 0.00075 
168 1 0.0216946 0.043612 0.0215093 0.0015 
94 1 0.00305134 0.0501901 0.0216831 0.001 
20 1 0.000682351 0.0562213 0.0212795 0.0005 
8 1 0.010885 0.0547262 0.0208536 0.0005 
147 1 0.00911569 0.0498914 0.0218037 0.0005 
133 1 0.0143536 0.0549088 0.0224754 0.0005 
45 1 0.0187446 0.0543326 0.0213323 0.00125 
84 1 0.0223059 0.0510661 0.0224236 0.00125 
82 1 0.00732223 0.0618818 0.0220482 0.0015 
86 1 0.0017275 0.0586765 0.0214801 0.001 
81 1 0.011018 0.0619206 0.0215585 0.00075 
39 1 0.019186 0.0626811 0.0207508 0.00075 
187 1 0.00620292 0.0667462 0.0205862 0.0005 
14 1 0.022202 0.0659303 0.021344 0.0005 
134 1 0.0217793 0.0693696 0.022124 0.0005 
87 1 0.00570895 0.0727845 0.0209487 0.0005 
149 1 0.000773865 0.0726179 0.0217509 0.0005 
182 1 0.00718121 0.0733742 0.0215417 0.00075 
203 1 0.00550481 0.0760475 0.0216616 0.001 
125 1 0.00962452 0.0757185 0.0223068 0.0005 
163 1 0.015262 0.0733353 0.0205282 0.0005 
79 1 0.0145148 0.0753725 0.0210728 0.001 
195 1 0.0114951 0.0738249 0.0221907 0.0005 
31 1 0.00632498 0.00259394 0.0256079 0.0015 
6 1 0.0057006 0.00665971 0.0255238 0.001 
160 1 0.00384885 0.00273339 0.0278041 0.00175 
170 1 0.00345725 0.00664023 0.024761 0.001 
123 1 0.0085638 0.00212819 0.0244501 0.001 
32 1 0.0119062 0.000622765 0.0228351 0.0005 
176 1 0.00951604 0.000532637 0.0245919 0.0005 
151 1 0.0196432 0.000777774 0.0292248 0.00075 
108 1 0.0192392 0.00260883 0.025645 0.00125 
126 1 0.0168888 0.00608645 0.02273 0.0015 
174 1 0.00145139 0.0114424 0.0289251 0.001 
16 1 0.00419978 0.00936828 0.0240285 0.001 
175 1 0.00112123 0.0147749 0.0291655 0.0005 
89 1 0.00538796 0.0112943 0.0235726 0.0005 
115 1 0.00665919 0.00934703 0.0234579 0.00125 
156 1 0.00457828 0.0104321 0.0250593 0.0005 
64 1 0.00577388 0.011606 0.0280966 0.001 
142 1 0.00961613 0.00739795 0.0263659 0.00075 
10 1 0.00829124 0.0100892 0.0232777 0.0005 
17 1 0.0131287 0.0103383 0.0267015 0.00075 
185 1 0.0115647 0.0104403 0.0279866 0.00125 
192 1 0.0139258 0.00851066 0.0249558 0.00075 
213 1 0.0100574 0.00712194 0.0235672 0.002 
57 1 0.0197577 0.0108328 0.0250899 0.0015 
77 1 0.0225165 0.0111093 0.0243796 0.00075 
92 1 0.0218653 0.00796601 0.0226474 0.001 
106 1 0.0173129 0.00746723 0.0258227 0.0005 
143 1 0.0211486 0.0128995 0.0230564 0.0005 
200 1 0.0192536 0.00943698 0.022562 0.00075 
35 1 0.00338886 0.0146385 0.0276241 0.0015 
59 1 0.00674185 0.0203028 0.0241266 0.0005 
75 1 0.00101562 0.0177039 0.0241598 0.00075 
98 1 0.00256071 0.0192248 0.0225109 0.0015 
110 1 0.00520097 0.0153234 0.024582 0.0005 
121 1 0.00553092 0.0202699 0.0237268 0.0005 
188 1 0.00765136 0.0143023 0.0246939 0.0015 
47 1 0.0107001 0.0157795 0.0288044 0.0005 
80 1 0.0128693 0.0196996 0.0243841 0.001 
90 1 0.0149939 0.0183824 0.0241884 0.00075 
164 1 0.00967909 0.0147152 0.024491 0.0005 
46 1 0.0154039 0.0157176 0.02262 0.00075 
109 1 0.0213929 0.0207355 0.0256004 0.0005 
211 1 0.0168133 0.0178719 0.0256084 0.0015 
55 1 0.00263084 0.0274981 0.0280812 0.001 
19 1 0.00535531 0.0217654 0.0248684 0.00125 
61 1 0.00484276 0.0266237 0.0241174 0.0005 
99 1 0.00682053 0.0280341 0.0235702 0.00075 
137 1 0.00355324 0.0239355 0.0228411 0.0005 
208 1 0.00758159 0.0251302 0.0254338 0.002 
2 1 0.015344 0.0235471 0.0242899 0.00175 
15 1 0.010519 0.0282996 0.0246189 0.001 
153 1 0.0104047 0.0243118 0.0233419 0.0005 
189 1 0.0118327 0.0272818 0.0231786 0.0005 
34 1 0.0200516 0.0252522 0.025227 0.0005 
130 1 0.0196408 0.0247071 0.0243938 0.0005 
5 1 0.00805785 0.0351684 0.022701 0.00125 
12 1 0.00467146 0.0297323 0.0228998 0.00075 
162 1 0.00702761 0.0294171 0.0237131 0.0005 
180 1 0.00391995 0.0350754 0.0256513 0.002 
202 1 0.00768028 0.0341938 0.0253625 0.00075 
41 1 0.0122541 0.0340019 0.0228513 0.00075 
43 1 0.0125896 0.0298589 0.0246515 0.0005 
71 1 0.0148158 0.0298436 0.0229451 0.0005 
118 1 0.00994502 0.0323688 0.0237469 0.00125 
148 1 0.0101179 0.0349502 0.0251228 0.0005 
60 1 0.0173197 0.0292007 0.0235113 0.00175 
91 1 0.0186072 0.0349946 0.0224983 0.00075 
144 1 0.0195767 0.031928 0.0238718 0.001 
198 1 0.0218529 0.0326306 0.0276457 0.00125 
1 1 0.00772468 0.0411035 0.0239697 0.00075 
122 1 0.00118311 0.0406987 0.0230521 0.001 
194 1 0.00630519 0.0368002 0.0229561 0.00075 
196 1 0.000675224 0.0381603 0.0293593 0.0005 
40 1 0.0108662 0.0395131 0.0249261 0.0005 
95 1 0.0120757 0.0419702 0.0228539 0.0005 
119 1 0.00827588 0.0414709 0.0253198 0.0005 
124 1 0.0127554 0.0388256 0.0253514 0.00075 
139 1 0.0137664 0.0413489 0.0236765 0.001 
186 1 0.0088799 0.0404029 0.0247799 0.0005 
63 1 0.0172235 0.0388952 0.0251903 0.00175 
73 1 0.0216446 0.0397892 0.0231048 0.001 
146 1 0.0218573 0.0393643 0.0258568 0.0005 
172 1 0.0209435 0.0405421 0.0288742 0.001 
11 1 0.00690552 0.0427013 0.0232954 0.00075 
7 1 0.00722757 0.0478828 0.0293251 0.0005 
145 1 0.00686825 0.0441343 0.0253739 0.0015 
210 1 0.00692803 0.0496355 0.02901 0.001 
184 1 0.00848162 0.0471455 0.0238471 0.0005 
197 1 0.0146075 0.0473542 0.0273156 0.00125 
205 1 0.0130412 0.047772 0.0237812 0.00125 
74 1 0.0193956 0.0467196 0.0250164 0.00075 
114 1 0.0176621 0.0481583 0.0251952 0.001 
179 1 0.0234411 0.0489551 0.0233391 0.0005 
56 1 0.00190876 0.0534666 0.0237871 0.0005 
67 1 0.00733164 0.052746 0.0279917 0.0005 
102 1 0.00763384 0.0549409 0.0281501 0.0005 
116 1 0.00353231 0.0502703 0.0256648 0.0005 
129 1 0.00652968 0.0530997 0.0236142 0.0005 
24 1 0.0101568 0.0545473 0.0229069 0.00125 
27 1 0.0119517 0.0487963 0.0283434 0.00125 
48 1 0.0146805 0.0498471 0.02428 0.00125 
157 1 0.0219347 0.054415 0.0238798 0.001 
191 1 0.0208265 0.0503493 0.0259134 0.00175 
107 1 0.00496652 0.0592759 0.0264116 0.00075 
4 1 0.00776952 0.0600522 0.0261114 0.001 
96 1 0.00116495 0.0626606 0.0243813 0.0005 
103 1 0.00325688 0.0596021 0.0242057 0.0015 
140 1 0.00405508 0.0575795 0.0253178 0.0005 
141 1 0.0131504 0.062193 0.0294376 0.0005 
68 1 0.0089003 0.0632654 0.0248807 0.002 
111 1 0.00898385 0.0589488 0.0245333 0.001 
158 1 0.0159527 0.0599077 0.0262767 0.00225 
169 1 0.0111307 0.0577558 0.0253692 0.00125 
193 1 0.0142623 0.0581019 0.022852 0.001 
117 1 0.0230915 0.0613024 0.02727 0.00075 
18 1 0.0225131 0.0579683 0.0236415 0.0005 
104 1 0.0229643 0.0573918 0.0225974 0.0005 
131 1 0.0201613 0.0604845 0.0250625 0.0005 
150 1 0.0198195 0.0577166 0.0214833 0.00125 
76 1 0.00250302 0.0657788 0.023617 0.0005 
53 1 0.00597665 0.0659389 0.0293344 0.0005 
132 1 0.00053673 0.0676873 0.0251378 0.0005 
135 1 0.00731103 0.0668055 0.0251101 0.0005 
173 1 0.00743381 0.0654066 0.0226527 0.0005 
183 1 0.0018348 0.0695898 0.0249359 0.0005 
21 1 0.0136057 0.0664963 0.0280101 0.00075 
72 1 0.0110356 0.0688315 0.0277805 0.0015 
9 1 0.0159659 0.0640293 0.0235663 0.00175 
26 1 0.0146509 0.0689022 0.0235613 0.00175 
128 1 0.00977575 0.0683742 0.025215 0.0005 
181 1 0.0118605 0.0647735 0.0274556 0.0005 
214 1 0.00892322 0.0670548 0.0235963 0.0005 
166 1 0.0231724 0.0669998 0.0293644 0.0005 
52 1 0.0220007 0.0706197 0.0241244 0.0005 
65 1 0.0194574 0.0659653 0.0247345 0.0005 
93 1 0.0213052 0.0693202 0.0241327 0.0005 
69 1 0.00131951 0.0740752 0.0222337 0.00075 
50 1 0.00426693 0.0717844 0.0274488 0.0015 
22 1 0.00416394 0.075947 0.0233984 0.00075 
127 1 0.00659006 0.0750761 0.0257065 0.0005 
177 1 0.0076196 0.0735398 0.0255748 0.00075 
23 1 0.00859638 0.0760552 0.0252815 0.00075 
29 1 0.00999439 0.0770935 0.0236148 0.00075 
101 1 0.00853066 0.0740534 0.0234436 0.0005 
167 1 0.0158062 0.0734498 0.0232383 0.001 
206 1 0.0101642 0.0731346 0.0237919 0.0005 
201 1 0.0171597 0.0701811 0.0276272 0.0005 
83 1 0.0234843 0.0774995 0.0293786 0.0005 
85 1 0.0234415 0.0712874 0.0234428 0.0005 
207 1 0.0197519 0.0729058 0.0236749 0.0015 
215 1 0.0123304 0.0674696 0.0257881 0.0005 
216 1 0.00593778 0.055562 0.0273975 0.00075 
217 1 0.00827958 0.00948323 0.0223606 0.0005 
218 1 0.0179904 0.0388276 0.0221528 0.001 
219 1 0.0211956 0.00614144 0.0219393 0.001 
220 1 0.0122725 0.024818 0.0238982 0.00075 
221 1 0.0198795 0.0346758 0.024431 0.0015 
222 1 0.022233 0.0464404 0.0243437 0.0005 
223 1 0.00247047 0.00362983 0.023017 0.00175 
224 1 0.0179795 0.0701412 0.0238144 0.00125 
225 1 0.0189903 0.0608083 0.0237473 0.0005 
