ITEM: TIMESTEP
620000
ITEM: NUMBER OF ATOMS
2563
ITEM: BOX BOUNDS mm mm mm
-2.4e-06 0.0240024
-7.8e-06 0.0780078
-3e-06 0.030003
ITEM: ATOMS id type x y z radius 
1 1 0.00335021 0.00230165 0.0214999 0.0015 
2 1 0.000500622 0.00169022 0.0205 0.0005 
3 1 0.00540344 0.00437285 0.02075 0.00075 
4 1 0.00464196 0.000512197 0.0205 0.0005 
5 1 0.00435894 0.00373045 0.0205 0.0005 
6 1 0.00264679 0.000501097 0.0205 0.0005 
7 1 0.00455761 0.00620914 0.0205006 0.0005 
8 1 0.000499986 0.000510198 0.0205 0.0005 
9 1 0.00100081 0.00301303 0.0209999 0.001 
10 1 0.00733669 0.00615183 0.0205 0.0005 
11 1 0.00364358 0.000581226 0.0205 0.0005 
12 1 0.00050718 0.00533536 0.0205 0.0005 
13 1 0.00622426 0.00364934 0.0214456 0.0005 
14 1 0.00490645 0.00154131 0.0205 0.0005 
15 1 0.00137776 0.00630871 0.0205 0.0005 
16 1 0.0059073 0.00153709 0.0205 0.0005 
17 1 0.000499963 0.00433547 0.0204999 0.0005 
18 1 0.00541042 0.00286852 0.02075 0.00075 
19 1 0.00595985 0.000499772 0.0215957 0.0005 
20 1 0.00564714 0.000500016 0.0205 0.0005 
21 1 0.000769991 0.000499989 0.0214627 0.0005 
22 1 0.00689812 0.00227203 0.0207497 0.00075 
23 1 0.00158614 0.00112307 0.0207499 0.00075 
24 1 0.00684629 0.000750056 0.02075 0.00075 
25 1 0.0034041 0.00404866 0.0205 0.0005 
27 1 0.00272105 0.00482812 0.0205 0.0005 
28 1 0.00225255 0.0036763 0.0205 0.0005 
29 1 0.00178234 0.000749975 0.0221894 0.00075 
31 1 0.000517382 0.00155897 0.0215017 0.0005 
32 1 0.000499988 0.0062156 0.0209743 0.0005 
33 1 0.00168662 0.00461535 0.0211814 0.00075 
34 1 0.00651708 0.00350767 0.0205 0.0005 
36 1 0.00512328 0.0009382 0.0212675 0.0005 
37 1 0.00307858 0.00433866 0.0214038 0.0005 
38 1 0.00422687 0.000500021 0.0214103 0.0005 
40 1 0.000499993 0.000567174 0.0224232 0.0005 
41 1 0.00750372 0.00333649 0.0205 0.0005 
42 1 0.00789322 0.00138561 0.0205 0.0005 
43 1 0.00718521 0.00428426 0.0204999 0.0005 
1724 1 0.00577851 0.00631375 0.02075 0.00075 
1770 1 0.00207948 0.00559566 0.0205 0.0005 
1665 1 0.00137084 0.00581433 0.0213753 0.0005 
1715 1 0.00505306 0.000499986 0.0221636 0.0005 
1926 1 0.00390618 0.0051653 0.020764 0.00075 
1662 1 0.00670619 0.00512875 0.0216431 0.001 
1735 1 0.00537546 0.00187606 0.0215091 0.0005 
1762 1 0.00650511 0.00154801 0.0220029 0.00075 
1812 1 0.000757773 0.00422529 0.0224874 0.00075 
2008 1 0.00163856 0.00289262 0.0223522 0.0005 
2110 1 0.00532821 0.00143607 0.0224107 0.0005 
2030 1 0.000569105 0.00232367 0.0222602 0.0005 
2181 1 0.00527457 0.00693098 0.0217256 0.0005 
1610 1 0.00661003 0.00343856 0.0223438 0.0005 
1881 1 0.00710391 0.00257073 0.0224124 0.0005 
1977 1 0.00411986 0.000719507 0.0224509 0.0005 
44 1 0.00831382 0.00645099 0.0205 0.0005 
1633 1 0.00846692 0.00372216 0.0205 0.0005 
1806 1 0.00820761 0.00502877 0.0207499 0.00075 
99 1 0.00933026 0.00563313 0.021489 0.0005 
45 1 0.0091181 0.00584756 0.0204998 0.0005 
46 1 0.0094252 0.00489541 0.0205 0.0005 
47 1 0.0115101 0.00424777 0.0205001 0.0005 
48 1 0.0099224 0.00239942 0.0205 0.0005 
49 1 0.0137278 0.00243257 0.02075 0.00075 
50 1 0.00989758 0.00139974 0.0205 0.0005 
51 1 0.0103576 0.00050022 0.0205 0.0005 
52 1 0.012523 0.000499935 0.0204999 0.0005 
53 1 0.0110365 0.00123472 0.0205 0.0005 
54 1 0.00835751 0.000499966 0.0205 0.0005 
55 1 0.010839 0.00513863 0.0205 0.0005 
56 1 0.0132901 0.00408422 0.0205 0.0005 
57 1 0.00839555 0.00250141 0.0207636 0.00075 
58 1 0.0109206 0.00642768 0.0205 0.0005 
59 1 0.0101179 0.00583142 0.0205 0.0005 
60 1 0.0124839 0.00568086 0.0215 0.0015 
61 1 0.0103528 0.00108645 0.0216212 0.00075 
62 1 0.00889384 0.00138582 0.0205 0.0005 
63 1 0.00935366 0.00325968 0.0205 0.0005 
64 1 0.0142093 0.00553081 0.0204999 0.0005 
66 1 0.0149392 0.00412838 0.02125 0.00125 
67 1 0.00935765 0.000499957 0.0205 0.0005 
68 1 0.0116808 0.00267711 0.0212534 0.00125 
69 1 0.0137218 0.000750257 0.02075 0.00075 
70 1 0.010303 0.00403745 0.0207503 0.00075 
71 1 0.0115982 0.000499924 0.02088 0.0005 
72 1 0.0127373 0.00148169 0.0205 0.0005 
75 1 0.0157039 0.00150001 0.021514 0.0015 
65 1 0.0138911 0.00678555 0.0205 0.0005 
2063 1 0.0126947 0.000698259 0.0214656 0.0005 
2015 1 0.0101902 0.00517504 0.0212627 0.0005 
1623 1 0.0159693 0.00537827 0.0219144 0.0005 
143 1 0.0147911 0.00634406 0.0205001 0.0005 
1828 1 0.0134298 0.00193777 0.0224617 0.001 
1644 1 0.0103868 0.00581736 0.0223173 0.00075 
1941 1 0.0117469 0.00099524 0.0217357 0.0005 
2441 1 0.00864073 0.00141357 0.0214675 0.0005 
1608 1 0.0159016 0.00582754 0.02075 0.00075 
2355 1 0.00866747 0.00615066 0.0221601 0.0005 
2090 1 0.0110245 0.00432894 0.0219924 0.0005 
74 1 0.0164171 0.00471473 0.0205 0.0005 
76 1 0.0223241 0.000750362 0.02075 0.00075 
77 1 0.0234987 0.00501659 0.0205 0.0005 
78 1 0.0205213 0.000999978 0.0209999 0.001 
79 1 0.02325 0.00249195 0.0207499 0.00075 
81 1 0.0208508 0.00270146 0.02075 0.00075 
82 1 0.0205123 0.00478739 0.0205 0.0005 
83 1 0.0188643 0.001526 0.02075 0.00075 
84 1 0.0216844 0.00180428 0.0204999 0.0005 
85 1 0.0171498 0.000500054 0.0205 0.0005 
86 1 0.0234999 0.00129296 0.0205 0.0005 
87 1 0.021004 0.00391658 0.0205 0.0005 
88 1 0.0181627 0.000504681 0.0205313 0.0005 
89 1 0.0221735 0.00194749 0.0216413 0.00075 
90 1 0.0210761 0.00587481 0.0207499 0.00075 
91 1 0.0198564 0.00576502 0.0204999 0.0005 
92 1 0.0224855 0.00411559 0.0205 0.0005 
93 1 0.0219572 0.00324818 0.0205 0.0005 
95 1 0.0234951 0.00401237 0.0205 0.0005 
97 1 0.0174382 0.00605208 0.0205 0.0005 
182 1 0.02325 0.0062506 0.0207499 0.00075 
1643 1 0.0211784 0.00446769 0.021316 0.0005 
1663 1 0.0218206 0.00486256 0.0205 0.0005 
1901 1 0.0202464 0.0061671 0.0216382 0.0005 
1650 1 0.0222939 0.00530568 0.0218703 0.001 
2044 1 0.016884 0.00275682 0.0204999 0.0005 
1612 1 0.023 0.00346129 0.0221852 0.001 
96 1 0.0208768 0.00701508 0.0217521 0.0005 
187 1 0.0221537 0.00699043 0.0205 0.0005 
2221 1 0.0223092 0.000499994 0.0219745 0.0005 
1629 1 0.0184924 0.00413942 0.0222501 0.00225 
1979 1 0.0217547 0.00671549 0.0213786 0.0005 
2364 1 0.019202 0.000703622 0.0216577 0.0005 
2071 1 0.0179523 0.000866193 0.0218409 0.00075 
2447 1 0.0215111 0.0035102 0.0218898 0.0005 
80 1 0.0201301 0.00703877 0.0207499 0.00075 
2462 1 0.021287 0.00638331 0.0224505 0.0005 
102 1 0.00490379 0.00717788 0.0205 0.0005 
35 1 0.000546306 0.00780782 0.0219208 0.0005 
1682 1 0.00303612 0.00729985 0.0217501 0.00175 
26 1 0.000749203 0.00741985 0.0207496 0.00075 
100 1 0.00603801 0.00802626 0.0210004 0.001 
101 1 0.00131038 0.00851355 0.0205 0.0005 
103 1 0.00162266 0.0105456 0.0205 0.0005 
104 1 0.00223074 0.0094451 0.02075 0.00075 
105 1 0.00695202 0.0117498 0.0205 0.0005 
106 1 0.00345866 0.00921975 0.0205 0.0005 
107 1 0.00276388 0.0121277 0.0205 0.0005 
108 1 0.00438173 0.0112446 0.02075 0.00075 
109 1 0.000508433 0.0109387 0.0205 0.0005 
110 1 0.00512451 0.0102708 0.0205 0.0005 
111 1 0.00142318 0.0115256 0.0205 0.0005 
112 1 0.00385325 0.0126882 0.02075 0.00075 
113 1 0.00582875 0.0103797 0.021527 0.00075 
114 1 0.00481228 0.0122208 0.0214013 0.0005 
116 1 0.0027695 0.0132932 0.0205 0.0005 
118 1 0.000500146 0.0130296 0.0205 0.0005 
119 1 0.00357232 0.0138898 0.0205 0.0005 
122 1 0.00632176 0.0125262 0.0205 0.0005 
124 1 0.00596959 0.0115461 0.0205 0.0005 
125 1 0.00508826 0.0127067 0.0205 0.0005 
126 1 0.0033989 0.0135325 0.021552 0.0005 
128 1 0.00709198 0.0131641 0.0205 0.0005 
129 1 0.00581259 0.0133979 0.0205 0.0005 
130 1 0.00168565 0.012722 0.0207499 0.00075 
131 1 0.000502809 0.0119642 0.0205 0.0005 
132 1 0.00611926 0.00969383 0.0205 0.0005 
133 1 0.00385426 0.0101382 0.0205 0.0005 
134 1 0.000750005 0.00968494 0.02075 0.00075 
136 1 0.00150987 0.00982562 0.0217324 0.0005 
137 1 0.00246737 0.0131733 0.0216146 0.0005 
138 1 0.000499974 0.00855241 0.0212161 0.0005 
139 1 0.00757271 0.0071258 0.0205 0.0005 
140 1 0.000500107 0.0135796 0.0213352 0.0005 
141 1 0.0079108 0.0083042 0.0207499 0.00075 
1822 1 0.00283388 0.0108185 0.02075 0.00075 
154 1 0.00736756 0.0105479 0.02075 0.00075 
1865 1 0.000499997 0.0115953 0.0214294 0.0005 
1780 1 0.00468845 0.0091119 0.02075 0.00075 
222 1 0.00658661 0.0140321 0.0205 0.0005 
1934 1 0.0035744 0.0125285 0.0219579 0.0005 
120 1 0.00478783 0.0140944 0.02075 0.00075 
1893 1 0.00374772 0.0100244 0.0217952 0.00075 
123 1 0.000500437 0.0141295 0.0205 0.0005 
1655 1 0.00714868 0.0093074 0.0215643 0.00075 
1805 1 0.00250958 0.011921 0.021714 0.00075 
1890 1 0.00114651 0.0108391 0.0213289 0.0005 
1700 1 0.00752244 0.00711817 0.0220073 0.001 
1970 1 0.00455139 0.0114754 0.0220162 0.0005 
2119 1 0.0016665 0.00905737 0.0223666 0.0005 
1739 1 0.00119424 0.012895 0.0224751 0.001 
163 1 0.0081868 0.0118397 0.0207498 0.00075 
183 1 0.0152263 0.00724426 0.0204999 0.0005 
148 1 0.00832094 0.0134051 0.02075 0.00075 
142 1 0.0136769 0.00814756 0.0205 0.0005 
144 1 0.00965336 0.0102028 0.0205 0.0005 
145 1 0.0126088 0.00823788 0.0205 0.0005 
147 1 0.0130639 0.00734742 0.0205 0.0005 
149 1 0.00963144 0.00734199 0.0212514 0.00125 
150 1 0.0115628 0.00759789 0.0207499 0.00075 
151 1 0.0117284 0.00910053 0.02075 0.00075 
152 1 0.010621 0.00857584 0.0205 0.0005 
153 1 0.0111488 0.0105138 0.0207498 0.00075 
155 1 0.0115655 0.0119547 0.02075 0.00075 
156 1 0.0094998 0.0113293 0.0204999 0.0005 
158 1 0.00870071 0.0107281 0.0204999 0.0005 
159 1 0.0131628 0.00907038 0.0205 0.0005 
160 1 0.0103415 0.011869 0.020509 0.0005 
164 1 0.00953998 0.013287 0.0205 0.0005 
165 1 0.00931671 0.0123123 0.0205 0.0005 
166 1 0.0107645 0.0132652 0.0207499 0.00075 
167 1 0.00941006 0.00890871 0.0205 0.0005 
168 1 0.0122642 0.0132975 0.02075 0.00075 
169 1 0.012304 0.0109206 0.0205 0.0005 
170 1 0.0137664 0.0107767 0.0209999 0.001 
171 1 0.00855206 0.00962311 0.0210647 0.00075 
172 1 0.0121199 0.0109362 0.0219042 0.00075 
173 1 0.0128087 0.0118223 0.0205 0.0005 
174 1 0.0134186 0.0127461 0.0205 0.0005 
175 1 0.00970935 0.0108458 0.0213498 0.0005 
176 1 0.0089069 0.012557 0.0214781 0.0005 
177 1 0.00883906 0.0112484 0.021637 0.0005 
179 1 0.0126164 0.00995279 0.0205 0.0005 
180 1 0.0128198 0.012248 0.0217067 0.00075 
184 1 0.0146355 0.00959813 0.0213251 0.0005 
1640 1 0.0112875 0.00818077 0.0221042 0.00075 
1732 1 0.0101595 0.00947168 0.0217483 0.001 
181 1 0.0141107 0.00938916 0.0205 0.0005 
191 1 0.0148891 0.00842161 0.0207497 0.00075 
1614 1 0.0102526 0.0121381 0.0220355 0.001 
192 1 0.0151928 0.010774 0.0205 0.0005 
1815 1 0.0151377 0.010436 0.0215391 0.0005 
1740 1 0.0158915 0.0110024 0.0212059 0.0005 
325 1 0.013383 0.0137962 0.0205 0.0005 
1676 1 0.0132097 0.0104914 0.0223671 0.0005 
1592 1 0.0153366 0.0133159 0.0219998 0.002 
2095 1 0.0124431 0.00976829 0.0215902 0.0005 
1831 1 0.00847754 0.00852394 0.0218424 0.0005 
1916 1 0.0154438 0.00926956 0.0219009 0.0005 
1929 1 0.0147023 0.0109076 0.0223059 0.0005 
201 1 0.015744 0.009654 0.02075 0.00075 
1775 1 0.0117655 0.0139099 0.0217448 0.0005 
1888 1 0.00874336 0.0102677 0.022465 0.00075 
2223 1 0.0128052 0.0137324 0.0220151 0.0005 
2037 1 0.0115484 0.00985972 0.0222383 0.0005 
94 1 0.0186045 0.00721139 0.0205 0.0005 
178 1 0.0170791 0.0122148 0.0205 0.0005 
185 1 0.0235 0.00744957 0.0205 0.0005 
186 1 0.0168968 0.00770147 0.0214999 0.0015 
188 1 0.0227944 0.00734619 0.0216676 0.00075 
189 1 0.0235 0.00990425 0.0205 0.0005 
190 1 0.0214169 0.00819778 0.0210012 0.001 
193 1 0.0178636 0.0131552 0.02075 0.00075 
194 1 0.0195563 0.00830067 0.0205 0.0005 
196 1 0.0202345 0.00971311 0.0213024 0.0005 
197 1 0.0187763 0.00953408 0.0209999 0.001 
198 1 0.0163155 0.0115696 0.0205 0.0005 
199 1 0.0173719 0.00936711 0.0205 0.0005 
200 1 0.0230001 0.0112272 0.0209999 0.001 
202 1 0.020775 0.00946033 0.0205 0.0005 
203 1 0.0169628 0.0105282 0.0207499 0.00075 
204 1 0.0177462 0.0114695 0.0205 0.0005 
205 1 0.0200711 0.013126 0.0205 0.0005 
206 1 0.0212693 0.01129 0.0207499 0.00075 
207 1 0.023488 0.0125991 0.0205 0.0005 
208 1 0.0234924 0.00870039 0.0205 0.0005 
209 1 0.0200399 0.00873312 0.0212609 0.0005 
210 1 0.0219713 0.0126205 0.02075 0.00075 
211 1 0.0202406 0.0104245 0.0205 0.0005 
212 1 0.0222266 0.0140986 0.0207499 0.00075 
213 1 0.0207653 0.0124063 0.0205 0.0005 
214 1 0.0235 0.0136069 0.0205 0.0005 
215 1 0.0210568 0.0134351 0.0205 0.0005 
216 1 0.0219448 0.00985335 0.0207521 0.00075 
217 1 0.0170594 0.011638 0.0213167 0.0005 
218 1 0.0210947 0.0125848 0.0219671 0.00075 
219 1 0.0230559 0.0133999 0.0213718 0.0005 
221 1 0.0235 0.0125247 0.021563 0.0005 
324 1 0.0190823 0.0132785 0.0205 0.0005 
1626 1 0.0193095 0.0117066 0.0212499 0.00125 
1691 1 0.0231314 0.0095489 0.0216402 0.00075 
1684 1 0.0218195 0.0115723 0.0218583 0.0005 
1915 1 0.0235 0.00836736 0.0218151 0.0005 
220 1 0.0201312 0.0136101 0.0213736 0.0005 
2005 1 0.0208191 0.0105775 0.0219907 0.00075 
1851 1 0.0192594 0.0073472 0.0222361 0.001 
1835 1 0.0177051 0.0123179 0.0216644 0.0005 
2211 1 0.0182609 0.0137064 0.0218779 0.0005 
1968 1 0.0191596 0.0134271 0.0215352 0.0005 
328 1 0.0187801 0.0141284 0.0209317 0.0005 
2149 1 0.0194251 0.00948117 0.022395 0.0005 
326 1 0.0203078 0.0140976 0.0204999 0.0005 
330 1 0.0171534 0.0141648 0.0204999 0.0005 
117 1 0.00361612 0.0148888 0.0204996 0.0005 
121 1 0.00187998 0.0144431 0.0209999 0.001 
223 1 0.00450827 0.0153416 0.0205 0.0005 
224 1 0.00281921 0.0155006 0.0205 0.0005 
225 1 0.00227775 0.0163806 0.0205 0.0005 
226 1 0.00608332 0.0155384 0.021251 0.00125 
227 1 0.00146379 0.0157989 0.0205 0.0005 
228 1 0.000501527 0.01514 0.0205 0.0005 
229 1 0.000501226 0.0161872 0.0205 0.0005 
230 1 0.00451011 0.017315 0.0205 0.0005 
231 1 0.00283205 0.0175474 0.0205 0.0005 
232 1 0.00124972 0.0175818 0.0212499 0.00125 
233 1 0.00648545 0.0172458 0.0205 0.0005 
234 1 0.00536434 0.0182125 0.0207499 0.00075 
235 1 0.00050371 0.0189765 0.0205 0.0005 
236 1 0.00349853 0.0165197 0.0207499 0.00075 
237 1 0.00546167 0.0169916 0.0204999 0.0005 
238 1 0.00442637 0.0160639 0.0214525 0.0005 
239 1 0.00470725 0.0163217 0.0205 0.0005 
240 1 0.00256369 0.018511 0.0205 0.0005 
241 1 0.000822525 0.0156618 0.0212903 0.0005 
242 1 0.000557943 0.0202278 0.0216296 0.0005 
243 1 0.00347002 0.0189336 0.0205 0.0005 
244 1 0.004396 0.0193113 0.0205 0.0005 
245 1 0.00595745 0.0172858 0.0213483 0.0005 
246 1 0.00326326 0.0199119 0.0205 0.0005 
247 1 0.00185974 0.0197386 0.0209999 0.001 
248 1 0.00456843 0.0189195 0.0214049 0.0005 
249 1 0.00715195 0.0202243 0.0205 0.0005 
250 1 0.00375595 0.0179717 0.0205 0.0005 
256 1 0.00725153 0.0186461 0.0212498 0.00125 
255 1 0.00776789 0.0166681 0.0222388 0.00075 
392 1 0.00561455 0.0196915 0.02075 0.00075 
443 1 0.00434809 0.0205352 0.02075 0.00075 
1846 1 0.00346659 0.0195297 0.0216808 0.00075 
393 1 0.00314534 0.020905 0.0205 0.0005 
1615 1 0.00499517 0.0169383 0.0213828 0.0005 
259 1 0.00760106 0.0167405 0.0207499 0.00075 
395 1 0.000499975 0.0201365 0.0205 0.0005 
1616 1 0.00356415 0.0149556 0.0219967 0.001 
1802 1 0.00495585 0.0210425 0.0218148 0.0005 
411 1 0.000500423 0.0210035 0.0209983 0.0005 
390 1 0.0066228 0.0206084 0.0215652 0.00075 
444 1 0.00335195 0.0207583 0.0214713 0.0005 
1636 1 0.00232739 0.0210037 0.0221522 0.00075 
432 1 0.00554186 0.020911 0.0210152 0.0005 
261 1 0.00766434 0.0155174 0.0205 0.0005 
1804 1 0.0031595 0.0180641 0.0215953 0.00075 
2055 1 0.00439886 0.0179379 0.0214945 0.0005 
1908 1 0.00408631 0.0169843 0.0222397 0.00075 
391 1 0.00715073 0.0212331 0.0205 0.0005 
1784 1 0.00594882 0.0169496 0.0222901 0.0005 
1766 1 0.00733988 0.0155146 0.0224758 0.0005 
146 1 0.00784529 0.014534 0.0205 0.0005 
2106 1 0.000865675 0.0155996 0.0222874 0.0005 
161 1 0.00922139 0.0142412 0.0205 0.0005 
1697 1 0.00830439 0.0153399 0.0222607 0.0005 
1855 1 0.0110931 0.0145572 0.0209556 0.0005 
162 1 0.0102191 0.0143889 0.0204999 0.0005 
252 1 0.0119806 0.014489 0.0205 0.0005 
254 1 0.0128493 0.0149843 0.0204999 0.0005 
257 1 0.012019 0.0151271 0.0215741 0.00075 
258 1 0.0112551 0.0154331 0.0205 0.0005 
260 1 0.0132368 0.0144446 0.0212473 0.0005 
262 1 0.0138557 0.0146884 0.0205 0.0005 
263 1 0.0122039 0.0157491 0.0205 0.0005 
264 1 0.0100769 0.0186043 0.0205 0.0005 
265 1 0.00935419 0.0192964 0.0204999 0.0005 
267 1 0.0137719 0.0162672 0.0212519 0.00125 
268 1 0.0112686 0.0183949 0.0205 0.0005 
269 1 0.00975382 0.0152769 0.0205 0.0005 
270 1 0.0121608 0.0192335 0.020751 0.00075 
271 1 0.0122726 0.0167664 0.0205 0.0005 
272 1 0.0150566 0.0190129 0.0205 0.0005 
273 1 0.0103088 0.016206 0.0205 0.0005 
274 1 0.0108106 0.0192838 0.0205104 0.0005 
275 1 0.0100885 0.0199752 0.0205 0.0005 
276 1 0.0132122 0.0201132 0.0214877 0.0005 
277 1 0.0113119 0.0201492 0.0205 0.0005 
278 1 0.0124009 0.0207144 0.020751 0.00075 
280 1 0.0115175 0.0174265 0.0205 0.0005 
281 1 0.0124718 0.0178307 0.0211989 0.00075 
282 1 0.0132489 0.0198245 0.0205 0.0005 
283 1 0.013512 0.0178315 0.0205 0.0005 
284 1 0.013315 0.0188246 0.0205 0.0005 
285 1 0.0142105 0.0195464 0.0205 0.0005 
286 1 0.0142231 0.0185736 0.0208351 0.0005 
287 1 0.0130817 0.0189734 0.0219843 0.00075 
288 1 0.0119306 0.0163575 0.021346 0.0005 
289 1 0.0150079 0.0201669 0.0205 0.0005 
290 1 0.0145039 0.0176742 0.0205 0.0005 
291 1 0.00910075 0.0183292 0.0205 0.0005 
292 1 0.0105487 0.0171784 0.0205 0.0005 
293 1 0.0148205 0.0207602 0.0214121 0.0005 
294 1 0.0136412 0.0208204 0.0209135 0.0005 
295 1 0.00858094 0.017475 0.0205 0.0005 
296 1 0.0155488 0.01788 0.0204997 0.0005 
297 1 0.00902379 0.0162614 0.02075 0.00075 
298 1 0.0110647 0.0182698 0.0214715 0.0005 
300 1 0.0111406 0.0172372 0.0214158 0.0005 
301 1 0.011285 0.0164538 0.0205 0.0005 
302 1 0.00806909 0.0157562 0.0213828 0.0005 
303 1 0.0121114 0.0199358 0.0217867 0.0005 
304 1 0.00998597 0.0168695 0.0212667 0.0005 
305 1 0.0136811 0.0180017 0.0214707 0.0005 
306 1 0.0150134 0.0152896 0.0205 0.0005 
307 1 0.0100096 0.0158703 0.0214119 0.0005 
308 1 0.0121099 0.0171819 0.0222068 0.0005 
309 1 0.0127222 0.0206229 0.0221949 0.0005 
310 1 0.0122023 0.0161398 0.0222834 0.0005 
311 1 0.00958025 0.0174393 0.0205 0.0005 
312 1 0.0102113 0.0178566 0.0211538 0.0005 
314 1 0.011289 0.0165032 0.0220996 0.0005 
315 1 0.0104839 0.0195753 0.021967 0.001 
316 1 0.0152002 0.0169429 0.0204999 0.0005 
317 1 0.0158479 0.0196244 0.0205 0.0005 
319 1 0.0110017 0.0159511 0.0213169 0.0005 
320 1 0.0156582 0.016054 0.0205 0.0005 
321 1 0.00903777 0.0190065 0.0214466 0.0005 
322 1 0.0141992 0.0199767 0.0214025 0.0005 
323 1 0.00860083 0.0171966 0.0214663 0.0005 
331 1 0.015863 0.0167076 0.0212383 0.0005 
1603 1 0.00867956 0.0150853 0.0205 0.0005 
1637 1 0.00917486 0.0180152 0.0214465 0.0005 
1721 1 0.0154452 0.0157507 0.0214288 0.0005 
461 1 0.00865532 0.0207146 0.0212499 0.00125 
318 1 0.0118436 0.0187598 0.0218657 0.0005 
313 1 0.0114217 0.0206596 0.0215259 0.0005 
279 1 0.014524 0.0210431 0.0205 0.0005 
2191 1 0.0132231 0.0148703 0.022152 0.0005 
465 1 0.0105511 0.0211091 0.0207499 0.00075 
1997 1 0.0131351 0.0176789 0.0222474 0.0005 
458 1 0.0102552 0.0210577 0.0219634 0.0005 
1920 1 0.00972697 0.0143219 0.0221779 0.00125 
1886 1 0.0117605 0.0206585 0.0224667 0.0005 
2002 1 0.00876581 0.0190477 0.0224623 0.0005 
1729 1 0.0221453 0.0163739 0.0219983 0.0005 
327 1 0.0233457 0.0145963 0.0205 0.0005 
329 1 0.0176413 0.0142998 0.0213623 0.0005 
332 1 0.0235 0.0142933 0.0214403 0.0005 
333 1 0.018036 0.0146382 0.0205 0.0005 
334 1 0.0215496 0.0151765 0.0205394 0.0005 
336 1 0.0225451 0.0152828 0.0205 0.0005 
337 1 0.0169996 0.0156064 0.0209999 0.001 
338 1 0.0184166 0.0155631 0.0205 0.0005 
339 1 0.0191972 0.0149281 0.0205 0.0005 
340 1 0.0184765 0.0171437 0.0213206 0.0005 
341 1 0.018092 0.0165089 0.0205 0.0005 
342 1 0.0173821 0.0186566 0.0205 0.0005 
343 1 0.0221169 0.0164302 0.02075 0.00075 
344 1 0.0180401 0.0175126 0.0205 0.0005 
345 1 0.0193133 0.0164113 0.0207499 0.00075 
346 1 0.0235 0.0175893 0.0205 0.0005 
347 1 0.0223205 0.017919 0.02075 0.00075 
348 1 0.0208436 0.0158869 0.0204998 0.0005 
349 1 0.0201359 0.0174141 0.0204998 0.0005 
350 1 0.0183628 0.0184609 0.0205 0.0005 
351 1 0.0190359 0.0176055 0.0205 0.0005 
352 1 0.0235 0.0186189 0.0205 0.0005 
353 1 0.0197946 0.0175305 0.0216965 0.00075 
354 1 0.0168286 0.0173333 0.02075 0.00075 
355 1 0.0208937 0.0184205 0.0207499 0.00075 
356 1 0.0211362 0.01722 0.0205 0.0005 
357 1 0.0196697 0.018379 0.0205 0.0005 
358 1 0.0235001 0.0155843 0.0204998 0.0005 
359 1 0.0202181 0.0150939 0.0205 0.0005 
360 1 0.0186685 0.0181227 0.02139 0.0005 
361 1 0.0203777 0.0198289 0.02075 0.00075 
362 1 0.0189014 0.0195635 0.02075 0.00075 
363 1 0.0235 0.0165842 0.0204999 0.0005 
364 1 0.0225 0.0200331 0.0214999 0.0015 
366 1 0.0205096 0.0166663 0.0210485 0.0005 
367 1 0.0232499 0.0170863 0.0216169 0.00075 
368 1 0.0177234 0.0192496 0.0212292 0.0005 
369 1 0.0235 0.0182992 0.0214475 0.0005 
370 1 0.01951 0.0187241 0.0214482 0.0005 
371 1 0.0176738 0.0180925 0.0212724 0.0005 
373 1 0.0180969 0.0203835 0.0212429 0.0005 
374 1 0.017554 0.0199387 0.0205 0.0005 
376 1 0.0163936 0.0185052 0.0205 0.0005 
377 1 0.0230716 0.0155608 0.0216736 0.00075 
378 1 0.0206737 0.0208627 0.0213873 0.0005 
379 1 0.0167729 0.0193909 0.0207995 0.0005 
380 1 0.0213196 0.0169356 0.0215694 0.0005 
381 1 0.0204127 0.0185996 0.0218897 0.0005 
382 1 0.0235 0.0185611 0.0224126 0.0005 
383 1 0.0202247 0.0157324 0.0212697 0.0005 
385 1 0.0175732 0.0168429 0.0216261 0.0005 
386 1 0.0198309 0.0145566 0.0212494 0.0005 
388 1 0.0198173 0.0163108 0.0219763 0.0005 
1830 1 0.0215559 0.0180658 0.0220482 0.00075 
1972 1 0.0187223 0.0152747 0.0219601 0.001 
1906 1 0.0172795 0.0164671 0.022505 0.0005 
526 1 0.0190241 0.0210615 0.02075 0.00075 
375 1 0.0165706 0.0212395 0.0212499 0.00125 
394 1 0.00499975 0.0215749 0.0205 0.0005 
396 1 0.0020526 0.0214596 0.0207499 0.00075 
397 1 0.00533073 0.0253169 0.0205 0.0005 
398 1 0.00587002 0.0242172 0.0207499 0.00075 
399 1 0.00449549 0.0228961 0.0209999 0.001 
400 1 0.000751672 0.0222063 0.02075 0.00075 
401 1 0.0012227 0.0254566 0.0214565 0.0005 
402 1 0.000500455 0.0246543 0.0205 0.0005 
403 1 0.000499991 0.0256543 0.0205 0.0005 
404 1 0.00787123 0.0220875 0.0204999 0.0005 
405 1 0.00244938 0.0250455 0.0205 0.0005 
406 1 0.00553549 0.0262958 0.0205 0.0005 
407 1 0.00331235 0.0241765 0.02075 0.00075 
408 1 0.000500242 0.0234078 0.0205 0.0005 
409 1 0.0065569 0.0255507 0.02075 0.00075 
410 1 0.00382229 0.0216492 0.0205 0.0005 
412 1 0.00164008 0.0240302 0.0212513 0.001 
413 1 0.00616587 0.0219611 0.02075 0.00075 
415 1 0.00666311 0.0267924 0.0205 0.0005 
416 1 0.00237694 0.0262601 0.0207865 0.00075 
417 1 0.00763453 0.0264702 0.0205 0.0005 
418 1 0.00453555 0.0262881 0.0205 0.0005 
419 1 0.000500721 0.0248465 0.0217886 0.0005 
420 1 0.00683381 0.0277927 0.0204999 0.0005 
421 1 0.00454756 0.024325 0.0205 0.0005 
422 1 0.000500274 0.0231106 0.0215754 0.0005 
423 1 0.000499979 0.0264004 0.021244 0.0005 
424 1 0.00149501 0.0253451 0.0205 0.0005 
426 1 0.00275983 0.0227821 0.0207499 0.00075 
427 1 0.00715977 0.0263819 0.0218434 0.00075 
428 1 0.00116812 0.0263983 0.0205 0.0005 
429 1 0.00433073 0.0253093 0.0205 0.0005 
430 1 0.00334747 0.0254954 0.0205 0.0005 
431 1 0.00603157 0.0265468 0.0213311 0.0005 
433 1 0.00143517 0.0274974 0.0205 0.0005 
434 1 0.00357576 0.0269892 0.0213861 0.0005 
435 1 0.00356426 0.0265258 0.0205 0.0005 
436 1 0.00607519 0.0230967 0.0217257 0.00075 
437 1 0.000622879 0.0275007 0.0214253 0.0005 
438 1 0.000500036 0.0271424 0.0204999 0.0005 
439 1 0.00150538 0.0265781 0.0219653 0.00075 
440 1 0.00458377 0.0270757 0.0212179 0.0005 
442 1 0.00666282 0.0276255 0.0214708 0.0005 
445 1 0.0056283 0.0275773 0.0207499 0.00075 
446 1 0.00660301 0.0232274 0.0205 0.0005 
447 1 0.000500011 0.0279568 0.0223067 0.0005 
450 1 0.00341622 0.0276671 0.0205 0.0005 
453 1 0.00714517 0.0242097 0.0205 0.0005 
454 1 0.00441266 0.0277491 0.0204996 0.0005 
455 1 0.00751444 0.027297 0.0210599 0.0005 
456 1 0.00317602 0.0217199 0.0212612 0.0005 
594 1 0.00243491 0.0274754 0.0205 0.0005 
629 1 0.00294005 0.0272058 0.0222373 0.0005 
1594 1 0.00778736 0.0244079 0.0221404 0.00125 
522 1 0.00732139 0.0227512 0.021007 0.0005 
463 1 0.00778717 0.0254815 0.0205 0.0005 
1824 1 0.00539339 0.0219435 0.0217325 0.0005 
615 1 0.00289252 0.0277244 0.0213537 0.0005 
1857 1 0.00150571 0.0219615 0.0217557 0.0005 
1939 1 0.00575823 0.0275272 0.0219921 0.0005 
1917 1 0.00413809 0.021523 0.0214866 0.0005 
605 1 0.00477538 0.0283164 0.0217379 0.00075 
606 1 0.00175095 0.0280479 0.0217469 0.00075 
579 1 0.00778721 0.028094 0.0205 0.0005 
2076 1 0.00188002 0.0252332 0.0222135 0.0005 
2088 1 0.00216285 0.0228477 0.0220341 0.0005 
2129 1 0.00343376 0.0216676 0.022226 0.0005 
589 1 0.00195842 0.0283544 0.0204999 0.0005 
448 1 0.00834642 0.0246513 0.0205 0.0005 
457 1 0.0149728 0.0216567 0.0218293 0.0005 
459 1 0.013604 0.0217438 0.0205 0.0005 
460 1 0.013954 0.0225743 0.0216847 0.0005 
462 1 0.0100242 0.0219306 0.0215338 0.0005 
464 1 0.00834307 0.0272628 0.0205 0.0005 
466 1 0.0090303 0.022919 0.0209999 0.001 
467 1 0.00923534 0.0254937 0.0207499 0.00075 
468 1 0.0104246 0.0237873 0.0216102 0.00075 
469 1 0.00918127 0.0267173 0.0204999 0.0005 
470 1 0.00976074 0.0241302 0.0205 0.0005 
471 1 0.0131016 0.0243295 0.0205004 0.0005 
473 1 0.0129747 0.0253423 0.0204999 0.0005 
474 1 0.0141307 0.0242997 0.0205 0.0005 
475 1 0.0119362 0.0231025 0.0205 0.0005 
476 1 0.0125887 0.0219257 0.0205003 0.0005 
477 1 0.0111341 0.0253932 0.020998 0.0005 
478 1 0.0109991 0.0237971 0.0205 0.0005 
479 1 0.0130067 0.0217408 0.0216667 0.00075 
480 1 0.0112565 0.0264174 0.0205 0.0005 
481 1 0.0123619 0.0249753 0.021561 0.00075 
482 1 0.0138861 0.0251964 0.0213428 0.00075 
483 1 0.0119914 0.0255238 0.0205 0.0005 
484 1 0.0115782 0.0246125 0.0205 0.0005 
485 1 0.0123622 0.0238644 0.0209879 0.0005 
486 1 0.0147958 0.0253525 0.0205 0.0005 
487 1 0.0107332 0.022598 0.0207499 0.00075 
488 1 0.0151 0.0234247 0.0205 0.0005 
489 1 0.0104398 0.0248644 0.0205 0.0005 
490 1 0.0132253 0.0229723 0.02075 0.00075 
491 1 0.0141392 0.0261159 0.0205 0.0005 
492 1 0.0104058 0.0258638 0.0204999 0.0005 
493 1 0.0102832 0.0274514 0.0204999 0.0005 
494 1 0.0141494 0.0261969 0.0220448 0.0005 
495 1 0.0127598 0.0269104 0.0212499 0.00125 
496 1 0.0151397 0.0244162 0.0206255 0.0005 
497 1 0.0148285 0.0268402 0.0204999 0.0005 
498 1 0.0148574 0.0260191 0.0212428 0.0005 
499 1 0.0144994 0.0269343 0.0214394 0.0005 
500 1 0.0159585 0.0263684 0.0207503 0.00075 
501 1 0.0147188 0.0222522 0.0207499 0.00075 
502 1 0.0142994 0.0235121 0.0210928 0.0005 
503 1 0.0155074 0.0252445 0.0211941 0.0005 
504 1 0.0120511 0.0223979 0.0212003 0.0005 
505 1 0.0100326 0.0266335 0.0210177 0.0005 
506 1 0.01537 0.027374 0.0212067 0.0005 
507 1 0.0107859 0.027598 0.0213592 0.0005 
508 1 0.0134046 0.0240233 0.0214041 0.0005 
509 1 0.0115492 0.023282 0.0214045 0.0005 
510 1 0.00899186 0.0264933 0.0214595 0.0005 
511 1 0.0156077 0.0266681 0.0219163 0.0005 
512 1 0.00941734 0.0245211 0.0215135 0.0005 
513 1 0.00819003 0.0259101 0.0213086 0.0005 
514 1 0.0116085 0.0217271 0.0205 0.0005 
516 1 0.0152911 0.0230796 0.0221818 0.001 
517 1 0.0112837 0.0274801 0.0205 0.0005 
518 1 0.00931673 0.027708 0.0205001 0.0005 
519 1 0.0143753 0.0279779 0.0207499 0.00075 
520 1 0.0152266 0.027533 0.0222439 0.0005 
523 1 0.0150262 0.0244612 0.0216298 0.0005 
1723 1 0.0112531 0.0218168 0.0219673 0.00075 
1708 1 0.00863787 0.0278896 0.0218772 0.001 
1749 1 0.0140715 0.021504 0.022277 0.0005 
1978 1 0.00834756 0.0264595 0.022225 0.0005 
525 1 0.01584 0.0227522 0.0205 0.0005 
1837 1 0.0151775 0.0255598 0.0223605 0.00075 
521 1 0.00993049 0.028305 0.0212395 0.0005 
515 1 0.0162213 0.0251398 0.0205 0.0005 
535 1 0.0160428 0.0275942 0.0205 0.0005 
527 1 0.0213355 0.0213165 0.0205 0.0005 
528 1 0.0199387 0.0215511 0.0214475 0.0005 
529 1 0.0189005 0.0218819 0.0216884 0.0005 
530 1 0.0168592 0.0253034 0.0218818 0.001 
532 1 0.020241 0.0216504 0.0204998 0.0005 
533 1 0.0208777 0.0218318 0.0212492 0.0005 
534 1 0.0235 0.0217721 0.0214875 0.0005 
536 1 0.0234799 0.0216161 0.0205 0.0005 
538 1 0.022214 0.0224658 0.0209999 0.001 
539 1 0.0199702 0.0248684 0.0204999 0.0005 
540 1 0.0162869 0.0238983 0.02075 0.00075 
541 1 0.0194886 0.025862 0.0205 0.0005 
542 1 0.0181968 0.0223146 0.02075 0.00075 
543 1 0.0216169 0.0237611 0.0205 0.0005 
544 1 0.0234998 0.0262868 0.0205 0.0005 
545 1 0.0182592 0.0255683 0.02075 0.00075 
546 1 0.0232501 0.0238536 0.0207499 0.00075 
547 1 0.0235 0.0230203 0.0216474 0.0005 
548 1 0.0235 0.0277186 0.0204999 0.0005 
549 1 0.0232501 0.0252831 0.021204 0.00075 
550 1 0.0222986 0.0256844 0.0204999 0.0005 
551 1 0.0178067 0.0237633 0.0207496 0.00075 
552 1 0.022193 0.0246063 0.0205 0.0005 
553 1 0.0169519 0.0228594 0.0205 0.0005 
554 1 0.0170672 0.0258486 0.0204999 0.0005 
555 1 0.0170051 0.0231033 0.0218312 0.00075 
556 1 0.022443 0.0269069 0.02075 0.00075 
557 1 0.0171638 0.0248057 0.0205 0.0005 
558 1 0.0198942 0.0232891 0.0212499 0.00125 
559 1 0.0209583 0.0245154 0.0205 0.0005 
560 1 0.0184632 0.024557 0.0218399 0.00075 
561 1 0.0176433 0.027404 0.0212499 0.00125 
562 1 0.0191046 0.0267917 0.0205 0.0005 
563 1 0.0209058 0.0259287 0.021 0.001 
564 1 0.0194256 0.0264121 0.0213676 0.0005 
565 1 0.021249 0.0226261 0.0221371 0.0005 
566 1 0.0189912 0.0245867 0.0204998 0.0005 
567 1 0.0234805 0.0272389 0.0213771 0.0005 
568 1 0.0235001 0.0263421 0.0218191 0.0005 
569 1 0.0193515 0.0251817 0.0212203 0.0005 
570 1 0.0182288 0.0259114 0.0219516 0.0005 
571 1 0.0226769 0.0283011 0.0204999 0.0005 
572 1 0.0215705 0.027127 0.0216176 0.0005 
573 1 0.0217115 0.0279327 0.0205 0.0005 
574 1 0.0201102 0.0280184 0.0212499 0.00125 
575 1 0.0182811 0.0230808 0.0218959 0.0005 
576 1 0.0192046 0.0257172 0.022052 0.0005 
577 1 0.0234976 0.0282774 0.0213292 0.0005 
578 1 0.0189128 0.0266725 0.0222069 0.0005 
1630 1 0.0201275 0.0249319 0.0218064 0.0005 
1746 1 0.0221578 0.0282372 0.0216352 0.00075 
1951 1 0.0178751 0.0221687 0.0219551 0.0005 
1818 1 0.0235002 0.0241905 0.0219272 0.0005 
372 1 0.0229572 0.0221141 0.0222545 0.0005 
1752 1 0.0201304 0.0264423 0.0224823 0.00075 
1867 1 0.0218238 0.0244067 0.02238 0.00125 
1976 1 0.0217682 0.0217426 0.0222361 0.0005 
537 1 0.0165034 0.0266791 0.0223625 0.0005 
451 1 0.000749839 0.0285514 0.0207499 0.00075 
580 1 0.000499984 0.0312589 0.0205 0.0005 