ITEM: TIMESTEP
70000
ITEM: NUMBER OF ATOMS
761
ITEM: BOX BOUNDS mm mm mm
-2.4e-06 0.0240024
-7.8e-06 0.0780078
-3e-06 0.030003
ITEM: ATOMS id type x y z radius 
324 1 0.0036574 0.00527486 0.0220003 0.002 
710 1 0.00719565 0.00398245 0.0206697 0.0005 
100 1 0.00780925 0.00204958 0.0205 0.0005 
199 1 0.0103725 0.000887469 0.0205105 0.0005 
32 1 0.00844441 0.00508875 0.0206106 0.0005 
395 1 0.0107291 0.00320353 0.0205041 0.0005 
213 1 0.0111897 0.00491241 0.0226035 0.002 
474 1 0.0123146 0.00189328 0.0207472 0.00075 
282 1 0.0131256 0.00616494 0.0213408 0.0005 
590 1 0.0102312 0.00227583 0.0205 0.0005 
176 1 0.00967462 0.000500984 0.0212662 0.0005 
148 1 0.011687 0.00223182 0.0217719 0.0005 
364 1 0.0083763 0.000846026 0.0212327 0.00075 
289 1 0.0142539 0.00647031 0.0206408 0.0005 
51 1 0.0164287 0.00448541 0.0205035 0.0005 
178 1 0.0193076 0.000785767 0.02075 0.00075 
161 1 0.0232049 0.000759215 0.0208273 0.00075 
155 1 0.0166148 0.00313375 0.0216024 0.00125 
159 1 0.0215152 0.00443032 0.0205 0.0005 
204 1 0.022257 0.00303359 0.020502 0.0005 
219 1 0.0208007 0.00228987 0.0210026 0.001 
126 1 0.0171948 0.00605201 0.0214987 0.0015 
108 1 0.0189552 0.00394287 0.0212536 0.00125 
333 1 0.0218899 0.00352431 0.021595 0.00075 
142 1 0.0232472 0.00230043 0.0207734 0.00075 
200 1 0.0203175 0.00532904 0.0207545 0.00075 
340 1 0.0232365 0.00380072 0.0207499 0.00075 
123 1 0.0217558 0.00100184 0.0222006 0.001 
452 1 0.023233 0.00502467 0.0205 0.0005 
544 1 0.0214229 0.00556031 0.0222021 0.001 
273 1 0.0230003 0.00253914 0.0225214 0.001 
518 1 0.0206549 0.00398912 0.02231 0.00075 
448 1 0.00307982 0.00721204 0.0205095 0.0005 
228 1 0.00603309 0.00920727 0.0205 0.0005 
274 1 0.00660352 0.0119475 0.0205 0.0005 
360 1 0.00364746 0.013465 0.0205 0.0005 
64 1 0.00536401 0.0111407 0.0215519 0.001 
380 1 0.00689794 0.0129243 0.0205056 0.0005 
89 1 0.0063888 0.0108 0.0205003 0.0005 
442 1 0.00259034 0.00897356 0.0209999 0.001 
490 1 0.00546194 0.0100749 0.0205 0.0005 
527 1 0.00392558 0.00966208 0.0209951 0.0005 
75 1 0.00158846 0.0104081 0.0207503 0.00075 
581 1 0.00714313 0.00945512 0.0221965 0.00075 
368 1 0.000590402 0.00799355 0.020522 0.0005 
588 1 0.00496178 0.00729545 0.0211851 0.0005 
501 1 0.00754078 0.00924792 0.0205005 0.0005 
256 1 0.00140643 0.0093091 0.0219447 0.0005 
154 1 0.00541586 0.0127157 0.0207669 0.00075 
98 1 0.00155724 0.013614 0.0214999 0.0015 
722 1 0.00312888 0.010091 0.0221349 0.0005 
275 1 0.0075724 0.0111431 0.0207516 0.00075 
97 1 0.0154183 0.00778388 0.0223277 0.001 
217 1 0.0104639 0.00805578 0.0205 0.0005 
307 1 0.0103977 0.00934278 0.0206294 0.0005 
46 1 0.0149765 0.00928135 0.0207548 0.00075 
80 1 0.0141245 0.0108143 0.0210657 0.001 
556 1 0.00807784 0.0125533 0.0207499 0.00075 
233 1 0.0126199 0.00807785 0.0216676 0.00075 
636 1 0.0144248 0.00805855 0.0205 0.0005 
592 1 0.0123855 0.0144444 0.0206534 0.0005 
714 1 0.00983793 0.00901567 0.028884 0.0005 
342 1 0.00903909 0.0138153 0.0210191 0.00075 
311 1 0.0167752 0.0105028 0.021028 0.001 
171 1 0.0161596 0.00796836 0.0207511 0.00075 
190 1 0.0213834 0.00951905 0.02075 0.00075 
319 1 0.0204706 0.0117745 0.0205 0.0005 
57 1 0.0224964 0.007705 0.0214986 0.0015 
143 1 0.0234802 0.00992858 0.0205275 0.0005 
192 1 0.0175657 0.00853473 0.0208099 0.00075 
185 1 0.0197716 0.0071997 0.02125 0.00125 
209 1 0.0162085 0.0092022 0.020501 0.0005 
6 1 0.0228893 0.0113542 0.0213947 0.001 
113 1 0.0182816 0.0115179 0.0205 0.0005 
293 1 0.0177415 0.0134489 0.0217537 0.00175 
735 1 0.0205802 0.0125364 0.0216569 0.0005 
44 1 0.00356911 0.0165109 0.02076 0.00075 
121 1 0.00758098 0.014242 0.0205 0.0005 
13 1 0.00080455 0.0152432 0.0205 0.0005 
137 1 0.000547764 0.0169573 0.0205 0.0005 
439 1 0.00541821 0.0175182 0.0212499 0.00125 
174 1 0.0027001 0.0182425 0.0210434 0.001 
35 1 0.007716 0.0158276 0.0219107 0.0015 
737 1 0.00694035 0.0209411 0.0215711 0.0005 
10 1 0.0153211 0.0145063 0.0205 0.0005 
287 1 0.00909486 0.0150192 0.0205 0.0005 
110 1 0.00914894 0.0182099 0.0206849 0.0005 
62 1 0.0095524 0.0208558 0.0220477 0.002 
252 1 0.0121017 0.0181987 0.0209287 0.0005 
71 1 0.0150255 0.0166088 0.0205 0.0005 
591 1 0.0150673 0.0200048 0.0222397 0.00075 
189 1 0.0140965 0.0172054 0.0211235 0.0005 
465 1 0.0146307 0.0200126 0.0205002 0.0005 
43 1 0.0129524 0.0203515 0.0205 0.0005 
709 1 0.0103988 0.0157426 0.02075 0.00075 
49 1 0.0206889 0.0148827 0.0207429 0.0005 
78 1 0.0231949 0.0185862 0.0205099 0.0005 
308 1 0.0229944 0.0145949 0.0211217 0.001 
231 1 0.0234065 0.0164349 0.0205 0.0005 
330 1 0.0231836 0.0198199 0.0208047 0.00075 
41 1 0.0220866 0.0165679 0.0207839 0.00075 
146 1 0.019359 0.015765 0.0205 0.0005 
697 1 0.0181099 0.0173773 0.0221232 0.0005 
350 1 0.0213526 0.0203726 0.0221966 0.0015 
719 1 0.0179886 0.0203797 0.0218401 0.00075 
70 1 0.0012251 0.0228554 0.0205 0.0005 
482 1 0.00705893 0.0241618 0.0207534 0.0005 
12 1 0.00106664 0.0270176 0.0208774 0.00075 
180 1 0.00674258 0.0278646 0.0220274 0.002 
678 1 0.00456707 0.0216507 0.0209999 0.001 
162 1 0.000524001 0.0281977 0.0205 0.0005 
529 1 0.00590045 0.0236043 0.0221397 0.00125 
260 1 0.0141413 0.0213397 0.021001 0.001 
1 1 0.00879928 0.0234218 0.020838 0.00075 
118 1 0.0121232 0.0227142 0.0213246 0.00125 
611 1 0.0139618 0.0271978 0.022379 0.0005 
42 1 0.023224 0.0250676 0.02075 0.00075 
272 1 0.0234364 0.0220202 0.0205 0.0005 
130 1 0.0223279 0.0215096 0.0205004 0.0005 
512 1 0.0180317 0.0245944 0.0214405 0.0005 
582 1 0.0167506 0.0231312 0.0208096 0.00075 
279 1 0.0204505 0.0243963 0.0209125 0.0005 
628 1 0.0192424 0.0241803 0.0212741 0.0005 
345 1 0.0164135 0.0272733 0.0208667 0.0005 
400 1 0.0174169 0.0278584 0.0205 0.0005 
726 1 0.0166993 0.0271188 0.0224101 0.0005 
566 1 0.0185788 0.0222568 0.0214117 0.00075 
523 1 0.016555 0.0233462 0.0224325 0.0005 
337 1 0.00497523 0.030747 0.0224339 0.00075 
36 1 0.00185853 0.0295239 0.021901 0.00175 
249 1 0.00290021 0.0333662 0.0220132 0.002 
259 1 0.000585118 0.0308786 0.0205668 0.0005 
534 1 0.00663312 0.0308567 0.02075 0.00075 
522 1 0.00076084 0.0321825 0.0207505 0.00075 
672 1 0.00537063 0.0321117 0.021829 0.00075 
451 1 0.00725303 0.0339537 0.02075 0.00075 
386 1 0.00718181 0.0353578 0.021101 0.0005 
748 1 0.00430772 0.0290534 0.0238575 0.0005 
269 1 0.0118615 0.0306604 0.0212499 0.00125 
348 1 0.013198 0.0346584 0.0205 0.0005 
505 1 0.013603 0.0335522 0.0205 0.0005 
54 1 0.0138653 0.0321052 0.0210005 0.001 
152 1 0.0148146 0.0283374 0.0205062 0.0005 
433 1 0.00803785 0.0349422 0.0205 0.0005 
91 1 0.0144781 0.0349575 0.020808 0.00075 
695 1 0.0147063 0.0298286 0.022418 0.00075 
247 1 0.00906138 0.0352222 0.0220146 0.00075 
261 1 0.015768 0.0327164 0.0205 0.0005 
198 1 0.0169644 0.0294126 0.0212498 0.00125 
374 1 0.0231548 0.0338383 0.0211818 0.00075 
353 1 0.0169649 0.032885 0.0205 0.0005 
640 1 0.0191718 0.0338961 0.020751 0.00075 
698 1 0.0198294 0.0284124 0.0208478 0.00075 
285 1 0.0169707 0.0350232 0.0219995 0.002 
221 1 0.0159542 0.0316976 0.0224146 0.0015 
354 1 0.00263123 0.0417672 0.0206886 0.0005 
3 1 0.00508209 0.0420533 0.0205 0.0005 
122 1 0.00101955 0.0415488 0.020999 0.001 
423 1 0.00500793 0.0399621 0.0209999 0.001 
347 1 0.00783629 0.0375132 0.0207753 0.00075 
535 1 0.00240966 0.0361301 0.0205 0.0005 
366 1 0.00328233 0.0379269 0.0206245 0.0005 
402 1 0.00703823 0.0419395 0.0217499 0.00175 
680 1 0.00269164 0.0360993 0.0217741 0.00075 
519 1 0.00059358 0.038304 0.0211395 0.0005 
551 1 0.00264501 0.0405085 0.0214527 0.00075 
405 1 0.0134302 0.0356487 0.0205 0.0005 
138 1 0.0106405 0.0362982 0.0205 0.0005 
328 1 0.014998 0.0381888 0.0205 0.0005 
309 1 0.0137845 0.0385288 0.0206338 0.0005 
514 1 0.0143053 0.0378508 0.0211864 0.0005 
453 1 0.0116366 0.0406953 0.0220169 0.002 
641 1 0.0105098 0.0362788 0.0223979 0.001 
410 1 0.0163592 0.0415952 0.0212982 0.0005 
242 1 0.0183003 0.0406464 0.0205 0.0005 
268 1 0.0164767 0.0388831 0.0205 0.0005 
394 1 0.0177348 0.0392258 0.0205 0.0005 
326 1 0.0235032 0.0410893 0.0205853 0.0005 
650 1 0.022307 0.0423992 0.0215039 0.0015 
265 1 0.00282895 0.0431489 0.02075 0.00075 
496 1 0.00790184 0.0469749 0.0207735 0.00075 
567 1 0.00156933 0.0494182 0.020504 0.0005 
357 1 0.000501697 0.0495978 0.0205 0.0005 
525 1 0.000515279 0.0486011 0.020611 0.0005 
487 1 0.00290153 0.0477364 0.0223253 0.00225 
712 1 0.00597691 0.045352 0.0210711 0.00075 
40 1 0.00935952 0.0451036 0.0205887 0.0005 
88 1 0.00899005 0.0487597 0.0205 0.0005 
335 1 0.0109834 0.0454169 0.0205 0.0005 
367 1 0.0116641 0.0479329 0.0217499 0.00175 
533 1 0.00935551 0.0463946 0.0207511 0.00075 
403 1 0.0138492 0.0443224 0.0222498 0.00225 
371 1 0.010101 0.046284 0.0218473 0.0005 
8 1 0.0158615 0.0489089 0.0205 0.0005 
415 1 0.0234222 0.04679 0.0205063 0.0005 
485 1 0.0190066 0.0448873 0.0208498 0.00075 
73 1 0.0227224 0.0479732 0.0211216 0.001 
112 1 0.0232488 0.0496022 0.02075 0.00075 
168 1 0.0202985 0.0469021 0.0214999 0.0015 
573 1 0.0184827 0.0492937 0.0215 0.0015 
499 1 0.017603 0.0461612 0.0217699 0.00125 
702 1 0.0209664 0.0489211 0.0214648 0.0005 
331 1 0.00309705 0.0500403 0.0205191 0.0005 
361 1 0.00388286 0.0508693 0.0224595 0.0005 
378 1 0.00113818 0.0508632 0.0210188 0.001 
608 1 0.00413899 0.0498549 0.0205025 0.0005 
244 1 0.000688464 0.0522623 0.0207157 0.0005 
165 1 0.000500069 0.0532213 0.0205001 0.0005 
254 1 0.0070531 0.053933 0.0207574 0.00075 
94 1 0.00452846 0.0512127 0.0210293 0.001 
264 1 0.0030631 0.0510662 0.0205174 0.0005 
379 1 0.00534388 0.0536188 0.0205 0.0005 
421 1 0.0021712 0.0541494 0.020582 0.0005 
105 1 0.000749562 0.0542347 0.0205964 0.0005 
7 1 0.00158815 0.0531315 0.0220788 0.0005 
226 1 0.000780941 0.0557599 0.0210775 0.00075 
373 1 0.0072646 0.0552154 0.0215507 0.00075 
705 1 0.00751609 0.049733 0.0215516 0.0015 
230 1 0.0055548 0.0502274 0.021713 0.0005 
431 1 0.0141857 0.0512891 0.0214296 0.001 
133 1 0.015945 0.0502872 0.0205 0.0005 
306 1 0.0149302 0.0554186 0.02075 0.00075 
227 1 0.0132044 0.0540711 0.0215274 0.0015 
24 1 0.00933049 0.0541838 0.0218171 0.00125 
653 1 0.0157458 0.0529263 0.0214433 0.0005 
692 1 0.012056 0.0562032 0.0220851 0.0005 
470 1 0.0219124 0.0497921 0.0210267 0.0005 
445 1 0.0234803 0.0508397 0.0205737 0.0005 
48 1 0.0177135 0.0553997 0.0212499 0.00125 
186 1 0.0234566 0.0541055 0.0205016 0.0005 
45 1 0.0202701 0.056657 0.0212719 0.00125 
179 1 0.0234947 0.0566328 0.0205 0.0005 
222 1 0.0233783 0.0523398 0.0205 0.0005 
67 1 0.0219009 0.0560721 0.0216071 0.0005 
258 1 0.0199537 0.0531948 0.0210465 0.0005 
332 1 0.000862099 0.0592993 0.0205679 0.0005 
263 1 0.00168331 0.0618745 0.0215094 0.0015 
86 1 0.00413144 0.0629335 0.021 0.001 
540 1 0.00625504 0.0577429 0.0217523 0.00125 
140 1 0.00419812 0.0614238 0.0212978 0.0005 
76 1 0.00110412 0.0636918 0.02091 0.0005 
147 1 0.0120466 0.0580691 0.0205011 0.0005 
344 1 0.00868439 0.0611974 0.0208123 0.00075 
129 1 0.0114669 0.0629357 0.0205002 0.0005 
81 1 0.0116431 0.0603779 0.020807 0.00075 
414 1 0.0133013 0.0587389 0.0210008 0.001 
493 1 0.0098431 0.0607209 0.0206019 0.0005 
502 1 0.0152695 0.0575941 0.0217504 0.001 
455 1 0.0137421 0.0613514 0.0217519 0.00175 
703 1 0.00893593 0.0593072 0.0210756 0.0005 
706 1 0.0105573 0.0606011 0.0223965 0.001 
711 1 0.0131199 0.0572186 0.0208203 0.0005 
396 1 0.00987418 0.0629346 0.0219202 0.00125 
84 1 0.0224946 0.0578683 0.0212499 0.00125 
157 1 0.0229994 0.0601048 0.0210136 0.001 
104 1 0.0234773 0.0614549 0.0205725 0.0005 
271 1 0.0213637 0.060236 0.0205 0.0005 
313 1 0.0165474 0.0582493 0.02075 0.00075 
18 1 0.0208105 0.0614765 0.02052 0.0005 
225 1 0.0234985 0.064074 0.0205012 0.0005 
255 1 0.0203242 0.0604263 0.020684 0.0005 
355 1 0.0187856 0.06166 0.0205 0.0005 
469 1 0.0167643 0.0610512 0.0206399 0.0005 
38 1 0.0197699 0.0592879 0.0207851 0.00075 
456 1 0.0188909 0.0596148 0.0219218 0.0005 
150 1 0.0175612 0.0584109 0.0224665 0.00125 
191 1 0.0218129 0.0631479 0.0217493 0.00175 
216 1 0.00167453 0.0639962 0.0223714 0.00075 
299 1 0.00221191 0.0681681 0.0205 0.0005 
351 1 0.0026205 0.0694885 0.0205 0.0005 
558 1 0.00080764 0.0648105 0.0213809 0.00075 
243 1 0.00100267 0.0676118 0.0212014 0.001 
629 1 0.00300575 0.0701494 0.0222066 0.0005 
167 1 0.0010086 0.06997 0.0210004 0.001 
187 1 0.00381223 0.0707554 0.0205 0.0005 
736 1 0.00741245 0.068519 0.0205731 0.0005 
745 1 0.00481493 0.0667462 0.0206115 0.0005 
325 1 0.0104758 0.0677741 0.0205255 0.0005 
26 1 0.012538 0.0649077 0.0217528 0.00175 
473 1 0.00970626 0.0694325 0.0208971 0.00075 
595 1 0.0149504 0.0643993 0.0222736 0.00075 
302 1 0.0120073 0.0707264 0.0218283 0.0015 
158 1 0.017895 0.0649502 0.0222773 0.00225 
235 1 0.0163153 0.0690492 0.0205 0.0005 
408 1 0.0172549 0.0686786 0.0213053 0.00075 
39 1 0.0230437 0.0685332 0.0208046 0.00075 
257 1 0.0204553 0.0694863 0.0205 0.0005 
14 1 0.0234907 0.069664 0.0205 0.0005 
134 1 0.0225776 0.0702734 0.0205 0.0005 
239 1 0.0200095 0.0677211 0.0205 0.0005 
404 1 0.0216803 0.0694383 0.02075 0.00075 
102 1 0.0171952 0.0670515 0.0205495 0.0005 
52 1 0.0233956 0.0704929 0.0210758 0.0005 
117 1 0.0231238 0.0670669 0.0213672 0.00075 
612 1 0.0165483 0.0674532 0.0224359 0.0005 
679 1 0.0207897 0.0664983 0.020818 0.00075 
418 1 0.0231413 0.0699377 0.0219265 0.0005 
20 1 0.00293333 0.0740664 0.0205 0.0005 
210 1 0.00292279 0.0763692 0.0209999 0.001 
149 1 0.000514943 0.0761157 0.0205025 0.0005 
182 1 0.00787966 0.0764006 0.0207944 0.00075 
69 1 0.0010339 0.0772356 0.0207481 0.00075 
443 1 0.0059408 0.0762225 0.0212499 0.00125 
101 1 0.0069952 0.077439 0.0205066 0.0005 
215 1 0.0038546 0.0751545 0.0221686 0.0005 
565 1 0.0020961 0.0772213 0.0219185 0.0005 
560 1 0.00114231 0.0742707 0.0221967 0.0005 
22 1 0.000748441 0.0772512 0.0222183 0.00075 
184 1 0.00651956 0.0721743 0.0219447 0.0005 
720 1 0.00520486 0.0720096 0.0212612 0.00075 
464 1 0.00845441 0.0712668 0.0217256 0.0015 
82 1 0.00881484 0.0742635 0.0219025 0.0015 
358 1 0.0146175 0.0725446 0.0209013 0.00075 
288 1 0.00971949 0.0723049 0.0205165 0.0005 
87 1 0.0138957 0.0774938 0.0205032 0.0005 
125 1 0.00901542 0.0768305 0.0204998 0.0005 
79 1 0.0131236 0.0764325 0.0212581 0.001 
195 1 0.0123393 0.0774966 0.020511 0.0005 
72 1 0.0109197 0.0763284 0.0224545 0.0015 
29 1 0.00852876 0.0772499 0.0219138 0.00075 
435 1 0.0104022 0.0751759 0.0206724 0.0005 
498 1 0.015337 0.0770434 0.0207461 0.00075 
173 1 0.00975776 0.0775002 0.0205028 0.0005 
277 1 0.0100139 0.076532 0.0205 0.0005 
206 1 0.0115487 0.0740331 0.0208875 0.0005 
563 1 0.0113243 0.0774183 0.0205 0.0005 
605 1 0.0106212 0.0720728 0.0209306 0.0005 
398 1 0.013354 0.0730888 0.020733 0.0005 
141 1 0.0158648 0.0775034 0.0217771 0.0005 
163 1 0.0169455 0.0714891 0.0205 0.0005 
9 1 0.0214048 0.0722025 0.0217499 0.00175 
329 1 0.0224293 0.075295 0.0210835 0.001 
93 1 0.0233659 0.0772913 0.0206891 0.0005 
481 1 0.0211167 0.0748597 0.0205003 0.0005 
234 1 0.019621 0.0748332 0.0210015 0.001 
655 1 0.0179796 0.0737032 0.0208544 0.0005 
85 1 0.023363 0.0774037 0.0217078 0.0005 
253 1 0.0191201 0.0772767 0.0220049 0.0005 
312 1 0.0207084 0.0753526 0.0222928 0.00075 
606 1 0.0176786 0.0722541 0.0223914 0.0005 
596 1 0.00369181 0.000855725 0.0292359 0.00075 
291 1 0.00228813 0.00151814 0.0225962 0.0015 
388 1 0.00378943 0.00176936 0.0262969 0.00175 
466 1 0.00416076 0.00397164 0.0246647 0.001 
300 1 0.00104273 0.000531459 0.0239123 0.0005 
151 1 0.00111582 0.000774559 0.0287748 0.00075 
561 1 0.00722851 0.0048335 0.0225602 0.00075 
28 1 0.000829949 0.00168517 0.0244465 0.00075 
599 1 0.00657224 0.00446441 0.0253843 0.0005 
684 1 0.00791339 0.00259677 0.0243459 0.00125 
320 1 0.0011449 0.00544938 0.0281415 0.001 
509 1 0.00189424 0.00178988 0.0292667 0.0005 
730 1 0.00776865 0.000505922 0.0293745 0.0005 
25 1 0.0149454 0.00495814 0.0226848 0.00125 
220 1 0.00887871 0.00104785 0.0291651 0.00075 
170 1 0.00889379 0.0010707 0.0265971 0.001 
542 1 0.0158639 0.00685556 0.0269365 0.00075 
362 1 0.009771 0.00269704 0.0224615 0.0005 
370 1 0.00839535 0.00371287 0.0225938 0.00075 
34 1 0.00978367 0.000500738 0.0280817 0.0005 
507 1 0.0135509 0.00278899 0.0236223 0.00125 
524 1 0.010571 0.00076144 0.0270391 0.00075 
16 1 0.0116821 0.00218333 0.0262804 0.001 
459 1 0.0160048 0.00201853 0.0240681 0.00125 
598 1 0.0122963 0.00257621 0.0248182 0.0005 
15 1 0.0108667 0.00139372 0.0289876 0.001 
241 1 0.00787473 0.000506815 0.0243001 0.0005 
676 1 0.0102686 0.0013159 0.023181 0.00075 
164 1 0.01603 0.00615686 0.0294866 0.0005 
701 1 0.0126548 0.0047241 0.0254984 0.0005 
613 1 0.0141994 0.00504768 0.0282348 0.00125 
515 1 0.00932308 0.00610499 0.0279811 0.0015 
723 1 0.0132075 0.00637642 0.0257212 0.00125 
572 1 0.0156782 0.000714806 0.0275341 0.0005 
31 1 0.0194454 0.00189878 0.023087 0.0015 
160 1 0.0221244 0.00188333 0.0250441 0.00175 
17 1 0.0198748 0.00076407 0.0250019 0.00075 
92 1 0.0230124 0.00386478 0.0289973 0.001 
202 1 0.0232182 0.00255354 0.027721 0.00075 
136 1 0.0232437 0.00407145 0.0264551 0.00075 
322 1 0.0186214 0.00257447 0.0294078 0.0005 
2 1 0.018445 0.00185439 0.0267753 0.00175 
281 1 0.0222045 0.0041123 0.0237788 0.00075 
5 1 0.01679 0.00476201 0.0284804 0.00125 
577 1 0.0232493 0.00551884 0.0224133 0.00075 
604 1 0.0184495 0.00543626 0.0248178 0.00175 
290 1 0.0208679 0.00605894 0.0239753 0.00075 
106 1 0.0227315 0.00660736 0.0231993 0.0005 
211 1 0.0208837 0.00470524 0.0280197 0.0015 
724 1 0.0212298 0.00649242 0.025694 0.00075 
47 1 0.017235 0.00628973 0.0294145 0.0005 
153 1 0.00570833 0.0100576 0.0225376 0.0005 
486 1 0.00227144 0.00803131 0.0250741 0.00225 
390 1 0.00104118 0.0103161 0.0236386 0.0005 
427 1 0.00308389 0.0119407 0.0228441 0.0005 
447 1 0.0074855 0.00958117 0.0235302 0.0005 
569 1 0.00584518 0.0128469 0.0250421 0.0005 
392 1 0.00583014 0.00972752 0.0239949 0.001 
156 1 0.0010998 0.0077938 0.0279822 0.0005 
208 1 0.00239795 0.0111301 0.0279877 0.002 
237 1 0.00655905 0.0131009 0.025742 0.0005 
488 1 0.00269074 0.0130951 0.0247659 0.00175 
625 1 0.00670011 0.0128443 0.0287922 0.001 
175 1 0.000502224 0.012868 0.0252416 0.0005 
436 1 0.00412943 0.0134115 0.0272192 0.0005 
673 1 0.0134319 0.0138128 0.0233234 0.00075 
318 1 0.0122084 0.00921604 0.0233366 0.00075 
549 1 0.0129719 0.00796229 0.0235398 0.0005 
571 1 0.0142313 0.00851201 0.0249418 0.001 
188 1 0.00863008 0.0132942 0.0234918 0.0015 
663 1 0.0149706 0.00708257 0.0238673 0.00075 
677 1 0.0126107 0.0122188 0.0249819 0.0015 
686 1 0.0117667 0.011317 0.02309 0.0005 
691 1 0.0156394 0.0130448 0.024911 0.00075 
30 1 0.0124439 0.0134884 0.0282408 0.001 
693 1 0.0164275 0.00970293 0.0292866 0.0005 
61 1 0.0180514 0.00780488 0.0226144 0.0005 
115 1 0.0181977 0.00680173 0.0277474 0.00125 
33 1 0.0194989 0.0101028 0.0226867 0.002 
66 1 0.0181793 0.00701324 0.02323 0.0005 
372 1 0.0210297 0.00890088 0.0264252 0.0015 
77 1 0.0202268 0.00917247 0.0291986 0.00075 
365 1 0.0210583 0.00738826 0.0232849 0.00075 
419 1 0.0229993 0.00951969 0.0250165 0.001 
432 1 0.0219075 0.0111064 0.0244239 0.0005 
538 1 0.0233853 0.0137423 0.0254821 0.0005 
334 1 0.0232141 0.00818621 0.0292439 0.00075 
172 1 0.0228979 0.00964458 0.0230232 0.001 
109 1 0.0196485 0.0126538 0.0232728 0.0005 
652 1 0.0214953 0.00908604 0.0238096 0.0005 
659 1 0.0222345 0.0125804 0.0239053 0.00075 
631 1 0.0224894 0.0106371 0.0284735 0.0015 
725 1 0.0194579 0.0139317 0.0255309 0.00075 
583 1 0.00412432 0.0184625 0.0293796 0.0005 
323 1 0.00205501 0.0165466 0.0234404 0.002 
401 1 0.00484991 0.0148723 0.0230752 0.00125 
646 1 0.0061364 0.0210998 0.0226504 0.0005 
463 1 0.00699646 0.0147912 0.0238879 0.0005 
399 1 0.00175848 0.0178819 0.0267117 0.0005 
296 1 0.00559377 0.018401 0.0248496 0.00225 
713 1 0.00753963 0.0195073 0.022755 0.0005 
59 1 0.00983842 0.0179829 0.0232383 0.0005 
450 1 0.010603 0.0142884 0.0236749 0.0005 
657 1 0.013649 0.0207807 0.0241203 0.0005 
715 1 0.0115099 0.0197739 0.0245807 0.00125 
369 1 0.0149852 0.0155074 0.0282442 0.00075 
734 1 0.0135632 0.0167847 0.0240303 0.00075 
741 1 0.0144943 0.0157951 0.0226819 0.0005 
139 1 0.0193563 0.0154488 0.0227001 0.001 
578 1 0.0229613 0.0156743 0.022942 0.001 
120 1 0.0189193 0.0157457 0.024893 0.001 
212 1 0.01762 0.0197166 0.0250678 0.00175 
90 1 0.0225992 0.0141246 0.0240574 0.00075 
585 1 0.0215291 0.0162932 0.0272424 0.002 
688 1 0.0021367 0.0240021 0.0293108 0.0005 
600 1 0.00129367 0.0264589 0.0237199 0.00125 
548 1 0.000677366 0.0255525 0.0288744 0.0005 
19 1 0.00712775 0.0216569 0.0241478 0.00125 
223 1 0.00497958 0.0234539 0.0252719 0.00175 
503 1 0.00145661 0.0211769 0.0260097 0.0005 
508 1 0.00795711 0.0230495 0.0227964 0.0005 
550 1 0.00415135 0.0236592 0.0231567 0.0005 
245 1 0.00374075 0.0269434 0.0250717 0.0015 
576 1 0.00224064 0.0229099 0.0245707 0.00075 
315 1 0.000817286 0.0283511 0.0291933 0.00075 
286 1 0.00201421 0.0251396 0.0265017 0.001 
587 1 0.000874791 0.0235567 0.0272369 0.0005 
700 1 0.00233374 0.0232995 0.0225974 0.00075 
742 1 0.00735602 0.0280211 0.0249433 0.0005 
685 1 0.0140859 0.0236229 0.0247948 0.001 
476 1 0.00926335 0.0251322 0.0243364 0.00225 
662 1 0.0140875 0.0251938 0.0228223 0.0015 
718 1 0.0117527 0.0224711 0.0256394 0.001 
675 1 0.0187624 0.0257506 0.0267378 0.00125 
500 1 0.0169959 0.0265357 0.0257411 0.00075 
238 1 0.0222313 0.0248437 0.0229611 0.0005 
557 1 0.0183589 0.0239069 0.0230319 0.00125 
623 1 0.0182769 0.0264673 0.0236147 0.00125 
639 1 0.0198308 0.0251201 0.0243031 0.0005 
648 1 0.0215715 0.0283142 0.0258179 0.00125 
747 1 0.0165764 0.0220328 0.0229864 0.0005 
338 1 0.00183338 0.030195 0.0257162 0.00175 
483 1 0.000507864 0.0301204 0.023649 0.0005 
430 1 0.000699824 0.0325881 0.0267936 0.0005 
479 1 0.000537611 0.0297789 0.0294147 0.0005 
412 1 0.00177155 0.0345222 0.0280926 0.001 
236 1 0.00583816 0.034549 0.026121 0.002 
638 1 0.00326211 0.0333118 0.0248408 0.00075 
668 1 0.0070236 0.0345562 0.0230524 0.0005 
60 1 0.00766681 0.0323257 0.022859 0.00175 
740 1 0.00794105 0.03137 0.0252956 0.0005 
626 1 0.0110099 0.0346375 0.0227585 0.00075 
494 1 0.0138594 0.0308515 0.0232585 0.00075 
597 1 0.0102165 0.0345472 0.0243599 0.001 
617 1 0.0124083 0.0325403 0.0233736 0.00075 
624 1 0.0141033 0.0341084 0.02268 0.0005 
627 1 0.0135663 0.0291292 0.0233284 0.00075 
731 1 0.0113887 0.0334471 0.0259626 0.00125 
425 1 0.0167706 0.034429 0.0260418 0.002 
553 1 0.0205627 0.034821 0.0268634 0.00175 
144 1 0.0177379 0.0296285 0.0233546 0.001 
416 1 0.0220836 0.0314199 0.0284121 0.00075 
492 1 0.0174669 0.0283503 0.022548 0.0005 
609 1 0.0182615 0.0332968 0.0243389 0.0005 
717 1 0.0209161 0.0314498 0.0237429 0.0005 
382 1 0.00146178 0.0357749 0.0250958 0.00075 
543 1 0.0035871 0.0362476 0.0242922 0.00125 
278 1 0.00282648 0.0375359 0.0274054 0.0005 
99 1 0.000783513 0.0361271 0.0281272 0.00075 
55 1 0.00107751 0.0384809 0.028984 0.001 
547 1 0.000817498 0.0429133 0.0231979 0.00075 
145 1 0.00166616 0.0396388 0.0242496 0.0015 
472 1 0.00706625 0.0375091 0.0292847 0.0005 
537 1 0.00249181 0.0425296 0.0243554 0.00125 
316 1 0.000508427 0.0404335 0.028197 0.0005 
375 1 0.00350966 0.0396868 0.0286082 0.001 
462 1 0.00609063 0.0409837 0.0287012 0.00125 
506 1 0.00439711 0.0362996 0.0272714 0.0005 
545 1 0.0055223 0.0382371 0.0235281 0.001 
579 1 0.000836864 0.0404198 0.0223175 0.00075 
603 1 0.00459478 0.0398534 0.0239971 0.00075 
620 1 0.000796266 0.041708 0.0249123 0.0005 
669 1 0.00773031 0.0367267 0.0238582 0.001 
704 1 0.00372949 0.0409474 0.0245865 0.0005 
196 1 0.00151763 0.0415039 0.0260371 0.0005 
343 1 0.0137011 0.0351149 0.0287487 0.00125 
441 1 0.0122088 0.0418966 0.0242679 0.0005 
570 1 0.00847348 0.0420031 0.023654 0.0005 
615 1 0.00918402 0.0383244 0.0253056 0.0005 
406 1 0.0101029 0.0364918 0.0283825 0.001 
521 1 0.00987596 0.0395916 0.0262774 0.0005 
647 1 0.0136816 0.0371156 0.0265057 0.00175 
409 1 0.00836884 0.0390166 0.0284208 0.00125 
733 1 0.00971672 0.0420738 0.0249962 0.0005 
633 1 0.0104724 0.0414996 0.0287153 0.00125 
594 1 0.0222017 0.0358217 0.0227327 0.00175 
607 1 0.019233 0.0364176 0.0245092 0.0005 
457 1 0.0160486 0.0362359 0.0289309 0.001 
305 1 0.0165475 0.041348 0.0233123 0.0015 
489 1 0.0196082 0.0387445 0.0230667 0.00175 
124 1 0.0232331 0.0413982 0.029189 0.00075 
304 1 0.0234651 0.0398608 0.023358 0.0005 
471 1 0.0227492 0.0364735 0.0256286 0.00125 
384 1 0.0219719 0.0376223 0.0242124 0.0005 
426 1 0.022733 0.0397202 0.0266651 0.00075 
580 1 0.0172821 0.0389733 0.0242063 0.00075 
584 1 0.0159563 0.0380638 0.0233633 0.00075 
504 1 0.0174217 0.0380502 0.0286579 0.00125 
554 1 0.0163217 0.0365095 0.0273645 0.0005 
536 1 0.0200544 0.0365545 0.025477 0.0005 
602 1 0.0221278 0.0409127 0.0275564 0.00075 
218 1 0.01911 0.0407175 0.027107 0.001 
739 1 0.0218378 0.0401088 0.0250681 0.001 
397 1 0.00593424 0.0459927 0.0282037 0.00175 
37 1 0.00207113 0.0478645 0.0274993 0.002 
495 1 0.00743051 0.0447404 0.0236852 0.00075 
95 1 0.00605133 0.0492707 0.0292622 0.0005 
428 1 0.000772984 0.0441426 0.0280731 0.00075 
682 1 0.00740491 0.0466353 0.0241874 0.0005 
11 1 0.0120984 0.0458113 0.0251474 0.00075 
444 1 0.00902244 0.0482405 0.0280669 0.00175 
424 1 0.00892012 0.0462264 0.0241264 0.00075 
467 1 0.0148773 0.0473905 0.0226269 0.001 
621 1 0.00819881 0.0435959 0.0246289 0.00075 
674 1 0.0103923 0.0473269 0.0243694 0.0005 
729 1 0.0109506 0.0485619 0.0250602 0.00075 
349 1 0.0156339 0.0493166 0.0274392 0.0005 
687 1 0.0194404 0.0449998 0.0293762 0.0005 
526 1 0.0185231 0.0476512 0.0229161 0.0005 
517 1 0.0234866 0.043955 0.0257981 0.0005 
74 1 0.0232457 0.0450138 0.0241943 0.00075 
670 1 0.0222002 0.0425983 0.0249163 0.0015 
738 1 0.0192913 0.0442871 0.0244224 0.00075 
381 1 0.000754472 0.051394 0.0226409 0.00075 
694 1 0.00273729 0.0558191 0.0254141 0.001 
276 1 0.0021814 0.0552284 0.0279033 0.0005 
665 1 0.00444215 0.051364 0.0254566 0.0015 
614 1 0.00723272 0.0496654 0.0291128 0.00075 
251 1 0.00200379 0.0533106 0.024371 0.00125 
510 1 0.00250095 0.0509866 0.023543 0.00125 
446 1 0.00607269 0.052567 0.0229052 0.00175 
601 1 0.00662685 0.0561597 0.0250502 0.00175 
634 1 0.0013421 0.0551962 0.0245103 0.00075 
637 1 0.00077349 0.0521634 0.0250387 0.0005 
193 1 0.00126573 0.0563417 0.0289135 0.001 
681 1 0.00430696 0.0541972 0.0250063 0.00125 
201 1 0.0117008 0.0507087 0.0294149 0.0005 
454 1 0.0122768 0.05053 0.0271997 0.00125 
531 1 0.0159479 0.0496763 0.0230662 0.0015 
520 1 0.0141302 0.0510499 0.0292084 0.00075 
346 1 0.0117763 0.0522273 0.0244561 0.002 
327 1 0.0151018 0.0526584 0.0277612 0.0015 
301 1 0.0144988 0.0557682 0.0251794 0.00125 
491 1 0.0110489 0.0557601 0.0257667 0.00125 
574 1 0.0123759 0.054123 0.0282523 0.0005 
642 1 0.0120555 0.0566293 0.0271578 0.0005 
658 1 0.0105373 0.0526007 0.0283944 0.001 
530 1 0.0147785 0.0548627 0.0290414 0.00075 
484 1 0.0223992 0.05535 0.0268554 0.00075 
303 1 0.0231815 0.0554773 0.0242172 0.00075 
564 1 0.0179365 0.0552816 0.0230743 0.0005 
649 1 0.0171238 0.0531138 0.0238609 0.0005 
661 1 0.0213806 0.0520205 0.0245877 0.001 
671 1 0.0183034 0.053787 0.0273378 0.00075 
689 1 0.0181505 0.0506602 0.0257647 0.00075 
690 1 0.0164884 0.0519906 0.0238154 0.0005 
707 1 0.0166127 0.0557603 0.0232991 0.00075 
716 1 0.0161172 0.0567106 0.0240472 0.0005 
728 1 0.0202596 0.0502608 0.0254696 0.00075 
383 1 0.0055821 0.0583361 0.0275255 0.001 
475 1 0.00245823 0.0574039 0.0266034 0.001 
116 1 0.00461068 0.0627932 0.0284627 0.0005 
417 1 0.000508148 0.062508 0.0229983 0.0005 
314 1 0.00134708 0.0599593 0.0236285 0.00125 
232 1 0.00328132 0.0629411 0.0294434 0.0005 
205 1 0.00639296 0.0630205 0.0287293 0.00125 
96 1 0.000675579 0.0635602 0.0232324 0.0005 
103 1 0.00596347 0.0629483 0.0227116 0.0015 
270 1 0.00126487 0.0615492 0.0255567 0.00125 
194 1 0.00101985 0.0580856 0.0285641 0.00075 
53 1 0.000677887 0.0636177 0.0249576 0.0005 
532 1 0.00354354 0.0616353 0.023906 0.0015 
619 1 0.00439655 0.0590256 0.0224066 0.001 
667 1 0.00594693 0.0588222 0.0253692 0.001 
708 1 0.00238855 0.0581506 0.0247393 0.00075 
727 1 0.00776641 0.0588129 0.0239828 0.0005 
437 1 0.00113506 0.0613818 0.0287975 0.001 
181 1 0.0124852 0.0615283 0.0240458 0.0005 
618 1 0.0129992 0.0570916 0.0257869 0.00075 
654 1 0.00866195 0.0612481 0.0284921 0.0015 
438 1 0.0113258 0.0633971 0.0229416 0.0005 
413 1 0.0105065 0.0625015 0.024353 0.00125 
497 1 0.0103091 0.0652015 0.0290743 0.0005 
632 1 0.0151805 0.059756 0.0251018 0.0005 
643 1 0.0128145 0.0609263 0.028075 0.0015 
696 1 0.00873606 0.0614015 0.0226063 0.0005 
341 1 0.0148343 0.0588234 0.0235022 0.00075 
721 1 0.0141895 0.0623499 0.0247687 0.0005 
586 1 0.0233523 0.0607025 0.022553 0.0005 
610 1 0.0200755 0.0579825 0.0270089 0.0005 
321 1 0.0210869 0.0619256 0.0261088 0.00225 
562 1 0.0190845 0.0570073 0.0290398 0.0005 
411 1 0.0227135 0.0593741 0.0225853 0.00075 
480 1 0.0232518 0.0594112 0.0292786 0.0005 
250 1 0.0164557 0.0620746 0.0240941 0.00125 
461 1 0.0168 0.0606752 0.0261313 0.00125 
477 1 0.0195012 0.0595438 0.0228933 0.0005 
478 1 0.0183904 0.0616583 0.0239942 0.0005 
593 1 0.0167812 0.0592263 0.0244136 0.00075 
616 1 0.0174527 0.063364 0.0258249 0.001 
107 1 0.000824506 0.0682354 0.0287563 0.00075 
356 1 0.00217914 0.0649889 0.0281884 0.00175 
56 1 0.000509793 0.0686529 0.0259461 0.0005 
267 1 0.000559269 0.0661251 0.0294287 0.0005 
132 1 0.000514539 0.0710592 0.0256427 0.0005 
183 1 0.00122476 0.0682078 0.0242913 0.0005 
422 1 0.00209897 0.0682133 0.0252338 0.0005 
528 1 0.0050472 0.0636606 0.0254641 0.00075 
363 1 0.00232753 0.0699843 0.0270513 0.002 
555 1 0.00544186 0.0692564 0.0254212 0.001 
651 1 0.00555894 0.0686509 0.0229606 0.00075 
660 1 0.00496485 0.0657477 0.0255659 0.0005 
295 1 0.00476036 0.0686793 0.0284113 0.0005 
732 1 0.0071665 0.0689836 0.0284018 0.00125 
135 1 0.00868719 0.0694212 0.0268484 0.0005 
387 1 0.0109397 0.0684346 0.0242997 0.0015 
352 1 0.00834859 0.0644837 0.0252507 0.00175 
114 1 0.0123921 0.065572 0.028934 0.001 
546 1 0.00919126 0.0709922 0.0242237 0.0005 
359 1 0.0120239 0.067278 0.0285834 0.00075 
119 1 0.0089944 0.0703178 0.028353 0.0005 
214 1 0.0100517 0.0710044 0.0236107 0.0005 
376 1 0.013257 0.0693365 0.0240722 0.0005 
339 1 0.0156697 0.0694727 0.0238967 0.0005 
511 1 0.0124118 0.0650709 0.0255198 0.002 