ITEM: TIMESTEP
510000
ITEM: NUMBER OF ATOMS
1675
ITEM: BOX BOUNDS mm mm mm
-2.4e-06 0.0240024
-7.8e-06 0.0780078
-3e-06 0.030003
ITEM: ATOMS id type x y z radius 
1 1 0.00323668 0.00242001 0.0214999 0.0015 
2 1 0.000499992 0.00211349 0.0205 0.0005 
3 1 0.00530169 0.00457885 0.02075 0.00075 
4 1 0.00467633 0.000501464 0.0205 0.0005 
5 1 0.00455205 0.00357005 0.0205002 0.0005 
6 1 0.00269554 0.000500049 0.0205 0.0005 
7 1 0.00360242 0.00424693 0.0205 0.0005 
8 1 0.000499994 0.000503055 0.0205 0.0005 
9 1 0.00100591 0.0034341 0.0209999 0.001 
10 1 0.00562949 0.00620497 0.0205 0.0005 
11 1 0.00369806 0.00075051 0.0205 0.0005 
12 1 0.000507536 0.00587037 0.0205 0.0005 
13 1 0.00478139 0.00369223 0.0214663 0.0005 
14 1 0.004729 0.00154073 0.0205 0.0005 
15 1 0.00149912 0.00573978 0.0205 0.0005 
16 1 0.00572637 0.00146825 0.0205 0.0005 
17 1 0.000499981 0.0047547 0.0205 0.0005 
18 1 0.00534707 0.00263604 0.02075 0.00075 
19 1 0.00552493 0.000499992 0.0213348 0.0005 
20 1 0.00607538 0.000499992 0.0205 0.0005 
21 1 0.000749372 0.000499992 0.0214683 0.0005 
22 1 0.00677033 0.00216244 0.02075 0.00075 
23 1 0.0015908 0.00108168 0.0207499 0.00075 
24 1 0.00714632 0.000751554 0.0210935 0.00075 
25 1 0.00262297 0.00404527 0.0205 0.0005 
27 1 0.00202679 0.00489004 0.0205 0.0005 
28 1 0.00223543 0.00420124 0.0214085 0.0005 
29 1 0.00189171 0.000749986 0.0221815 0.00075 
31 1 0.000499984 0.00144302 0.0212419 0.0005 
32 1 0.000499981 0.00627961 0.0216597 0.0005 
33 1 0.00094085 0.00511086 0.021614 0.00075 
34 1 0.00578236 0.00361786 0.0213895 0.0005 
35 1 0.000835313 0.00688549 0.0223812 0.0005 
36 1 0.00469528 0.00105684 0.0213744 0.0005 
37 1 0.00187036 0.00370415 0.0221957 0.0005 
38 1 0.00386916 0.000500677 0.0214649 0.0005 
40 1 0.000499994 0.000501167 0.0224367 0.0005 
41 1 0.00738737 0.00322039 0.0205 0.0005 
42 1 0.00791639 0.00172968 0.0205 0.0005 
43 1 0.0053364 0.00385606 0.0222855 0.0005 
44 1 0.00829068 0.00704976 0.0205 0.0005 
45 1 0.00932884 0.00606245 0.0205 0.0005 
46 1 0.00967485 0.00512406 0.0205 0.0005 
47 1 0.0113681 0.00400169 0.0205 0.0005 
48 1 0.00975452 0.00327474 0.0205 0.0005 
49 1 0.0130973 0.00200324 0.02075 0.00075 
50 1 0.00980486 0.00153405 0.0205 0.0005 
51 1 0.00987419 0.000499984 0.0205 0.0005 
52 1 0.0127554 0.000514084 0.0205 0.0005 
53 1 0.0108904 0.000509357 0.0205 0.0005 
54 1 0.00821726 0.00049999 0.0205 0.0005 
55 1 0.0106302 0.0046842 0.0205 0.0005 
56 1 0.0123409 0.00377022 0.0205 0.0005 
57 1 0.00855792 0.00286009 0.02075 0.00075 
58 1 0.0103868 0.00611231 0.0205 0.0005 
59 1 0.00996341 0.00566673 0.0212888 0.0005 
60 1 0.0120596 0.00566246 0.0214999 0.0015 
61 1 0.0101031 0.000768428 0.0216991 0.00075 
62 1 0.00882813 0.00131799 0.0205 0.0005 
63 1 0.00933561 0.00418315 0.0205 0.0005 
64 1 0.013825 0.00547003 0.0205 0.0005 
65 1 0.0138975 0.00706404 0.0205 0.0005 
66 1 0.01404 0.00375079 0.0212499 0.00125 
67 1 0.00904573 0.000512506 0.0210598 0.0005 
68 1 0.0110998 0.00244316 0.0212499 0.00125 
69 1 0.0143476 0.000757916 0.02075 0.00075 
70 1 0.0101007 0.00422718 0.0215359 0.00075 
71 1 0.0114984 0.000499992 0.0213277 0.0005 
72 1 0.0118357 0.000948268 0.0205 0.0005 
74 1 0.0157269 0.00348335 0.0205 0.0005 
75 1 0.016324 0.0015455 0.0214999 0.0015 
76 1 0.0231628 0.000789516 0.02075 0.00075 
77 1 0.0232182 0.00561013 0.0205 0.0005 
78 1 0.02134 0.00100161 0.0210508 0.001 
79 1 0.0232408 0.00295578 0.02075 0.00075 
80 1 0.020945 0.00694199 0.02075 0.00075 
81 1 0.0199507 0.00202559 0.02075 0.00075 
82 1 0.0185122 0.00358415 0.0205 0.0005 
83 1 0.0184415 0.00186839 0.02075 0.00075 
84 1 0.0208966 0.00293227 0.0205 0.0005 
85 1 0.0187141 0.000500008 0.0205 0.0005 
86 1 0.0233959 0.00192114 0.0218769 0.0005 
87 1 0.0205465 0.0041555 0.0205 0.0005 
88 1 0.0182813 0.00126163 0.021831 0.0005 
89 1 0.0220939 0.00257362 0.0216449 0.00075 
90 1 0.0221469 0.00479607 0.02075 0.00075 
91 1 0.0221967 0.00622637 0.0205003 0.0005 
92 1 0.0220728 0.00426941 0.0221491 0.0005 
93 1 0.0212529 0.00349857 0.0216322 0.0005 
94 1 0.0186823 0.00522269 0.0216211 0.0005 
95 1 0.02319 0.00442227 0.0222193 0.0005 
96 1 0.0224459 0.0058969 0.0214116 0.0005 
97 1 0.0181074 0.00399662 0.0213251 0.0005 
182 1 0.0232491 0.00688346 0.02075 0.00075 
1608 1 0.0164276 0.00705128 0.0221568 0.00075 
1643 1 0.020313 0.00433161 0.0220851 0.0005 
26 1 0.000749996 0.00709948 0.02075 0.00075 
99 1 0.00605112 0.007429 0.0224436 0.0005 
100 1 0.0061766 0.0078163 0.0209999 0.001 
101 1 0.0013703 0.00792157 0.0214584 0.0005 
102 1 0.00476336 0.00819233 0.0205 0.0005 
103 1 0.00138085 0.00968656 0.0205 0.0005 
104 1 0.00209206 0.00865625 0.02075 0.00075 
105 1 0.00685803 0.00898682 0.0219271 0.0005 
106 1 0.00331341 0.00874764 0.0205 0.0005 
107 1 0.00415233 0.00930863 0.0205 0.0005 
108 1 0.00526154 0.010228 0.02075 0.00075 
109 1 0.000500689 0.0102241 0.0205 0.0005 
110 1 0.00538335 0.00899217 0.0205 0.0005 
111 1 0.000879002 0.0111499 0.0205 0.0005 
112 1 0.00490502 0.0123516 0.02075 0.00075 
113 1 0.00559531 0.00903662 0.0221114 0.00075 
114 1 0.00531041 0.0102485 0.0219988 0.0005 
116 1 0.00148365 0.0123369 0.0205 0.0005 
117 1 0.00335193 0.0137402 0.0205 0.0005 
118 1 0.000499999 0.0130756 0.0205 0.0005 
119 1 0.00368496 0.0127899 0.0205 0.0005 
120 1 0.00532819 0.0137973 0.02075 0.00075 
121 1 0.00190681 0.0136902 0.021 0.001 
122 1 0.00601242 0.0117933 0.0205 0.0005 
123 1 0.000531183 0.0140751 0.0205 0.0005 
124 1 0.00624982 0.00950449 0.0205 0.0005 
125 1 0.0053762 0.011312 0.0221095 0.0005 
126 1 0.00458762 0.0128437 0.0218551 0.0005 
128 1 0.00700393 0.0122828 0.0205 0.0005 
129 1 0.00584148 0.0119547 0.0214774 0.0005 
130 1 0.000764234 0.012561 0.0217175 0.00075 
131 1 0.000500876 0.0120756 0.0205 0.0005 
132 1 0.00706102 0.00891974 0.0204999 0.0005 
133 1 0.00466754 0.00892951 0.0212686 0.0005 
134 1 0.000749991 0.00904382 0.0213668 0.00075 
136 1 0.00182051 0.00869002 0.0219696 0.0005 
137 1 0.00232255 0.0132979 0.0223868 0.0005 
138 1 0.000500085 0.00770645 0.0219021 0.0005 
139 1 0.00759003 0.00777034 0.0204999 0.0005 
140 1 0.000500663 0.0137883 0.0215146 0.0005 
141 1 0.00776592 0.00805057 0.0217053 0.00075 
142 1 0.0151129 0.00918102 0.0205 0.0005 
143 1 0.0155006 0.00805863 0.0205 0.0005 
144 1 0.0129944 0.00959989 0.0219351 0.0005 
145 1 0.0142238 0.00897602 0.0209725 0.0005 
146 1 0.00808875 0.0138629 0.0205 0.0005 
147 1 0.0130716 0.00781159 0.0205 0.0005 
148 1 0.00818892 0.0126152 0.02075 0.00075 
149 1 0.00979047 0.00751814 0.0213547 0.00125 
150 1 0.0120206 0.00791918 0.0214317 0.00075 
151 1 0.0128898 0.00902359 0.02075 0.00075 
152 1 0.011209 0.00810117 0.0204997 0.0005 
153 1 0.0130096 0.0105187 0.02075 0.00075 
154 1 0.00827371 0.00909073 0.0207499 0.00075 
155 1 0.0127175 0.0119906 0.02075 0.00075 
156 1 0.0104423 0.0115642 0.0205 0.0005 
158 1 0.00914345 0.00995356 0.0205 0.0005 
159 1 0.0152151 0.0103961 0.0205 0.0005 
160 1 0.0114682 0.0116928 0.0205 0.0005 
161 1 0.00949741 0.012508 0.0205 0.0005 
162 1 0.0115351 0.0131626 0.0205 0.0005 
163 1 0.00926209 0.0111735 0.02075 0.00075 
164 1 0.0107292 0.0125617 0.0205 0.0005 
165 1 0.0100235 0.0120983 0.0212452 0.0005 
166 1 0.0116295 0.0122987 0.0217355 0.00075 
167 1 0.00950243 0.00901884 0.0205001 0.0005 
168 1 0.0127155 0.0134933 0.0207499 0.00075 
169 1 0.0134423 0.0113761 0.021562 0.0005 
170 1 0.0151742 0.0118114 0.0209999 0.001 
171 1 0.00879935 0.00907198 0.0221546 0.00075 
172 1 0.014274 0.0104368 0.0216021 0.00075 
173 1 0.0136873 0.0125986 0.0212732 0.0005 
174 1 0.0157385 0.012692 0.0220752 0.0005 
175 1 0.00914692 0.0102698 0.0220616 0.0005 
176 1 0.0089613 0.0120699 0.0215676 0.0005 
177 1 0.0105038 0.0118987 0.0221032 0.0005 
178 1 0.0159371 0.0130026 0.0205 0.0005 
179 1 0.0143398 0.00985082 0.0205 0.0005 
180 1 0.0128033 0.0132461 0.0222268 0.00075 
181 1 0.0159599 0.00971545 0.0205 0.0005 
183 1 0.0166244 0.00742204 0.0205 0.0005 
184 1 0.0162853 0.0088699 0.0221696 0.0005 
185 1 0.0235 0.00870844 0.0205 0.0005 
186 1 0.0187948 0.00736023 0.0214999 0.0015 
187 1 0.0220452 0.00760727 0.0205 0.0005 
188 1 0.0232079 0.00813701 0.0215727 0.00075 
189 1 0.0234367 0.00970646 0.0205 0.0005 
190 1 0.0216895 0.00897603 0.0209999 0.001 
191 1 0.0166319 0.00868811 0.02075 0.00075 
192 1 0.0163044 0.0106566 0.0205 0.0005 
193 1 0.0168259 0.0138452 0.02075 0.00075 
194 1 0.0201589 0.00885474 0.0205 0.0005 
196 1 0.0202924 0.0107751 0.0214136 0.0005 
197 1 0.0191443 0.00990285 0.0209999 0.001 
198 1 0.0168171 0.0115195 0.0205 0.0005 
199 1 0.0177383 0.00927537 0.0205 0.0005 
200 1 0.022999 0.0110513 0.0209999 0.001 
201 1 0.0174943 0.0093989 0.0217504 0.00075 
202 1 0.0205354 0.0102303 0.0205 0.0005 
203 1 0.0175235 0.0105161 0.02075 0.00075 
204 1 0.0168281 0.0125194 0.0205 0.0005 
205 1 0.0201927 0.013509 0.0205 0.0005 
206 1 0.0211804 0.0113525 0.0207499 0.00075 
207 1 0.0234999 0.0125784 0.0205 0.0005 
208 1 0.0235 0.00970755 0.0214979 0.0005 
209 1 0.0204065 0.00941087 0.021644 0.0005 
210 1 0.0221018 0.0125361 0.02075 0.00075 
211 1 0.0199478 0.011156 0.0205 0.0005 
212 1 0.0222228 0.0140313 0.02075 0.00075 
213 1 0.020569 0.0124799 0.0205 0.0005 
214 1 0.0235 0.0136136 0.0205 0.0005 
215 1 0.0211956 0.0133643 0.0205 0.0005 
216 1 0.021496 0.0104573 0.0219114 0.00075 
217 1 0.0164228 0.012831 0.0213594 0.0005 
218 1 0.0211312 0.0122564 0.021946 0.00075 
219 1 0.0230941 0.0131022 0.0212574 0.0005 
220 1 0.0206667 0.0132463 0.0213404 0.0005 
221 1 0.0234993 0.0122819 0.0216972 0.0005 
222 1 0.00667418 0.0142766 0.0205 0.0005 
223 1 0.00554678 0.0151906 0.0205 0.0005 
224 1 0.00242928 0.0150044 0.0205 0.0005 
225 1 0.0024131 0.0160042 0.0205 0.0005 
226 1 0.00700121 0.0158271 0.0212499 0.00125 
227 1 0.00128481 0.014988 0.0205 0.0005 
228 1 0.000505057 0.0148019 0.0211863 0.0005 
229 1 0.000508324 0.0156995 0.0205 0.0005 
230 1 0.00527495 0.0186957 0.0205 0.0005 
231 1 0.00277706 0.016937 0.0205 0.0005 
232 1 0.001251 0.0173744 0.0212499 0.00125 
233 1 0.00642679 0.0184897 0.0205 0.0005 
234 1 0.00594256 0.0197235 0.02075 0.00075 
235 1 0.000605314 0.0197003 0.0205 0.0005 
236 1 0.0054358 0.0173677 0.02075 0.00075 
237 1 0.00682764 0.0178158 0.0213921 0.0005 
238 1 0.00590613 0.0172866 0.0219052 0.0005 
239 1 0.00666022 0.0173961 0.0205 0.0005 
240 1 0.00280789 0.019308 0.0205 0.0005 
241 1 0.000500013 0.0153971 0.0219899 0.0005 
242 1 0.000503765 0.0202069 0.0213561 0.0005 
243 1 0.00383341 0.0195722 0.0204999 0.0005 
244 1 0.0047773 0.0201239 0.0205 0.0005 
245 1 0.00677745 0.0171236 0.0224152 0.0005 
246 1 0.00362157 0.0205494 0.0205 0.0005 
247 1 0.00185761 0.020747 0.0209999 0.001 
248 1 0.00581657 0.0204603 0.0217752 0.0005 
249 1 0.00736613 0.0207625 0.0205 0.0005 
250 1 0.00276865 0.0180728 0.0218229 0.0005 
256 1 0.00782378 0.0192476 0.0212499 0.00125 
255 1 0.00796112 0.0175102 0.0222311 0.00075 
392 1 0.0058252 0.0212218 0.02075 0.00075 
252 1 0.0120287 0.0146819 0.0205006 0.0005 
254 1 0.0131638 0.0146332 0.0205 0.0005 
257 1 0.0126128 0.0150771 0.0215339 0.00075 
258 1 0.0115759 0.0155782 0.0204999 0.0005 
259 1 0.00820068 0.0173474 0.02075 0.00075 
260 1 0.0136329 0.0156854 0.0222624 0.0005 
261 1 0.00859216 0.0161436 0.0205 0.0005 
262 1 0.0135788 0.0155453 0.0205 0.0005 
263 1 0.0125744 0.0157843 0.0205 0.0005 
264 1 0.0105894 0.0187762 0.0207386 0.0005 
265 1 0.00939601 0.0199514 0.0205 0.0005 
267 1 0.0142062 0.0169973 0.0212499 0.00125 
268 1 0.011538 0.0185575 0.0205 0.0005 
269 1 0.0107507 0.0161454 0.0205 0.0005 
270 1 0.0121359 0.0196342 0.02075 0.00075 
271 1 0.0125947 0.0170436 0.0205 0.0005 
272 1 0.0146949 0.0194286 0.0205 0.0005 
273 1 0.0108161 0.0171484 0.0205 0.0005 
274 1 0.0109125 0.0196919 0.0205 0.0005 
275 1 0.0102457 0.0204801 0.0205 0.0005 
276 1 0.0128011 0.0198418 0.0217877 0.0005 
277 1 0.011244 0.0206353 0.0205 0.0005 
278 1 0.0123699 0.0211172 0.02075 0.00075 
279 1 0.014037 0.0208385 0.0205 0.0005 
280 1 0.0117226 0.0175746 0.0205 0.0005 
281 1 0.0127376 0.0182599 0.02075 0.00075 
282 1 0.013231 0.0202457 0.0205 0.0005 
283 1 0.0141621 0.0185783 0.0205 0.0005 
284 1 0.0134354 0.0192668 0.0205 0.0005 
285 1 0.0140452 0.0199839 0.0210191 0.0005 
286 1 0.0137799 0.0190854 0.021421 0.0005 
287 1 0.0128889 0.0186603 0.0221877 0.00075 
288 1 0.0125241 0.0164149 0.0212744 0.0005 
289 1 0.0149433 0.0204159 0.0205 0.0005 
290 1 0.0147069 0.018722 0.0213291 0.0005 
291 1 0.00964027 0.0189816 0.0205 0.0005 
292 1 0.0110043 0.0179382 0.0210931 0.0005 
293 1 0.0142213 0.0210166 0.0214665 0.0005 
294 1 0.0132973 0.0206355 0.0214359 0.0005 
295 1 0.00917719 0.0180866 0.0205 0.0005 
296 1 0.0152509 0.0185932 0.0205 0.0005 
297 1 0.00962781 0.0168011 0.02075 0.00075 
298 1 0.0113947 0.0188859 0.0214336 0.0005 
300 1 0.0118849 0.0180313 0.0216349 0.0005 
301 1 0.0116689 0.0165757 0.0205 0.0005 
302 1 0.00868624 0.016463 0.0214993 0.0005 
303 1 0.0118758 0.0202759 0.0217906 0.0005 
304 1 0.0117519 0.0170722 0.021364 0.0005 
305 1 0.0141526 0.0184967 0.0221511 0.0005 
306 1 0.0154249 0.0157978 0.0205 0.0005 
307 1 0.0107042 0.0166726 0.0213723 0.0005 
308 1 0.0125927 0.0173317 0.02184 0.0005 
309 1 0.012564 0.0209533 0.0220542 0.0005 
310 1 0.0128915 0.0163553 0.0222104 0.0005 
311 1 0.0101605 0.0179049 0.0205 0.0005 
312 1 0.0111024 0.0175065 0.02199 0.0005 
313 1 0.0113363 0.0211182 0.0217046 0.0005 
314 1 0.0116541 0.0167128 0.0222921 0.0005 
315 1 0.0104173 0.0199376 0.0218957 0.001 
316 1 0.0156371 0.0176708 0.0205 0.0005 
317 1 0.0157685 0.0198511 0.0205 0.0005 
318 1 0.0116784 0.0188957 0.0223924 0.0005 
319 1 0.011507 0.0160765 0.0213641 0.0005 
320 1 0.0158641 0.0166962 0.0205 0.0005 
321 1 0.00889744 0.0201204 0.0223341 0.0005 
322 1 0.0137355 0.0197544 0.0221629 0.0005 
323 1 0.010382 0.0167543 0.0223155 0.0005 
331 1 0.0159407 0.0169246 0.0214705 0.0005 
1603 1 0.00953488 0.0153025 0.0217301 0.0005 
324 1 0.0179932 0.0142159 0.0205 0.0005 
325 1 0.0166533 0.0144135 0.0218499 0.0005 
326 1 0.0189856 0.0143393 0.0205 0.0005 
327 1 0.0234964 0.0146138 0.0205 0.0005 
328 1 0.0185658 0.0150386 0.022107 0.0005 
329 1 0.017465 0.0149783 0.0221934 0.0005 
330 1 0.0179804 0.0147317 0.0213566 0.0005 
332 1 0.0234854 0.0146551 0.021499 0.0005 
333 1 0.0181916 0.0152024 0.0205 0.0005 
334 1 0.0224668 0.0150245 0.0214717 0.0005 
336 1 0.0226425 0.0151819 0.0205 0.0005 
337 1 0.0168377 0.0156356 0.0209999 0.001 
338 1 0.0182991 0.0157983 0.0212962 0.0005 
339 1 0.0188904 0.0159265 0.0205 0.0005 
340 1 0.0179314 0.0170278 0.0213507 0.0005 
341 1 0.0179978 0.0165064 0.0205 0.0005 
342 1 0.0172852 0.0185262 0.0205 0.0005 
343 1 0.0223245 0.0163198 0.0209081 0.00075 
344 1 0.0180281 0.0178192 0.0205 0.0005 
345 1 0.0190408 0.017139 0.0207729 0.00075 
346 1 0.0235 0.0174511 0.0205 0.0005 
347 1 0.0224374 0.0180603 0.02075 0.00075 
348 1 0.0212277 0.0167589 0.0205 0.0005 
349 1 0.0200546 0.0179355 0.0205 0.0005 
350 1 0.0182486 0.0187954 0.0205 0.0005 
351 1 0.0191462 0.0183543 0.0205 0.0005 
352 1 0.0235 0.0187664 0.0205 0.0005 
353 1 0.0195384 0.0188557 0.0216149 0.00075 
354 1 0.016889 0.017367 0.02075 0.00075 
355 1 0.0208084 0.0189008 0.02075 0.00075 
356 1 0.0212504 0.0177586 0.0205 0.0005 
357 1 0.0195983 0.0194177 0.0205 0.0005 
358 1 0.0234999 0.0155261 0.0209096 0.0005 
359 1 0.0202427 0.0169311 0.0204999 0.0005 
360 1 0.0183467 0.0192193 0.0217152 0.0005 
361 1 0.020386 0.0203555 0.0207499 0.00075 
362 1 0.018518 0.0199947 0.0207499 0.00075 
363 1 0.0235 0.0164383 0.0205 0.0005 
364 1 0.0225001 0.0201807 0.0214999 0.0015 
366 1 0.0202101 0.0174502 0.0213603 0.0005 
367 1 0.0232478 0.017235 0.021705 0.00075 
368 1 0.0173413 0.0193657 0.021596 0.0005 
369 1 0.0235 0.0184306 0.0214419 0.0005 
370 1 0.0194628 0.0201193 0.0215588 0.0005 
371 1 0.0177648 0.0184802 0.0213762 0.0005 
372 1 0.0207894 0.0210041 0.0221292 0.0005 
373 1 0.019374 0.0210584 0.0219653 0.0005 
374 1 0.0173884 0.0195215 0.0205 0.0005 
375 1 0.0168729 0.0210162 0.0212499 0.00125 
376 1 0.016245 0.0184649 0.0205 0.0005 
377 1 0.0232301 0.0157885 0.0221017 0.00075 
378 1 0.020027 0.0203917 0.0223381 0.0005 
379 1 0.0165059 0.0193295 0.0209292 0.0005 
380 1 0.0207243 0.0187126 0.0219829 0.0005 
381 1 0.0205784 0.0196985 0.0217958 0.0005 
382 1 0.0235 0.0187032 0.022404 0.0005 
383 1 0.0196758 0.017007 0.0220801 0.0005 
385 1 0.0168404 0.0169086 0.0219118 0.0005 
386 1 0.0189583 0.0163849 0.0217668 0.0005 
388 1 0.0201308 0.0179393 0.0222317 0.0005 
390 1 0.00691158 0.0213966 0.0217706 0.00075 
391 1 0.0069696 0.021685 0.0205 0.0005 
393 1 0.00306301 0.0216992 0.0205024 0.0005 
394 1 0.00531772 0.0223383 0.0204999 0.0005 
395 1 0.000500029 0.021909 0.0205 0.0005 
396 1 0.00210132 0.0224635 0.02075 0.00075 
397 1 0.00573469 0.0252333 0.0205 0.0005 
398 1 0.00652236 0.024295 0.02075 0.00075 
399 1 0.00486516 0.0236791 0.0209999 0.001 
400 1 0.000750038 0.023115 0.02075 0.00075 
401 1 0.00140417 0.0262273 0.0213302 0.0005 
402 1 0.000499996 0.0253243 0.0205 0.0005 
403 1 0.000499999 0.0263245 0.0205 0.0005 
404 1 0.00764639 0.0224254 0.0205 0.0005 
405 1 0.00285951 0.0258194 0.0205 0.0005 
406 1 0.00597615 0.0266423 0.0205 0.0005 
407 1 0.00355373 0.0248105 0.02075 0.00075 
408 1 0.000499872 0.0243139 0.0204999 0.0005 
409 1 0.0068351 0.0257692 0.0207537 0.00075 
410 1 0.00370058 0.0226585 0.0205 0.0005 
411 1 0.000499998 0.0221284 0.0214756 0.0005 
412 1 0.00182147 0.0248168 0.021 0.001 
413 1 0.00645607 0.0227963 0.0207578 0.00075 
414 1 0.000499963 0.0248108 0.0217095 0.0005 
415 1 0.00672868 0.0269978 0.0210543 0.0005 
416 1 0.0029136 0.0270429 0.02075 0.00075 
417 1 0.00781298 0.0265053 0.0205 0.0005 
418 1 0.00510173 0.0271274 0.0205 0.0005 
419 1 0.000501142 0.0258003 0.0213794 0.0005 
420 1 0.00743841 0.0274325 0.0205 0.0005 
421 1 0.00474296 0.025105 0.0205 0.0005 
422 1 0.000512322 0.0254796 0.022453 0.0005 
423 1 0.000504631 0.0264686 0.0221232 0.0005 
424 1 0.00196078 0.0262579 0.0205 0.0005 
426 1 0.00310218 0.0234701 0.0212493 0.00075 
427 1 0.00711292 0.02686 0.0222357 0.00075 
428 1 0.00126147 0.0269727 0.0205 0.0005 
429 1 0.00412882 0.0258942 0.0205 0.0005 
430 1 0.00352051 0.0260824 0.021271 0.0005 
431 1 0.0061801 0.0276391 0.0219422 0.0005 
432 1 0.00550461 0.0222583 0.021479 0.0005 
433 1 0.00193949 0.0277853 0.0205 0.0005 
434 1 0.00438522 0.0275255 0.021232 0.0005 
435 1 0.00412928 0.0268942 0.0205 0.0005 
436 1 0.0061975 0.0237813 0.0221299 0.00075 
437 1 0.00145129 0.0272192 0.0214503 0.0005 
438 1 0.000499993 0.0269739 0.0212604 0.0005 
439 1 0.00247729 0.0269771 0.0221835 0.00075 
440 1 0.00521763 0.0278134 0.0217055 0.0005 
442 1 0.00712592 0.0279336 0.021307 0.0005 
443 1 0.00433147 0.0215845 0.0207506 0.00075 
444 1 0.0031543 0.0216303 0.0215474 0.0005 
445 1 0.00600759 0.0279724 0.0207499 0.00075 
446 1 0.00731712 0.0234627 0.0213715 0.0005 
447 1 0.000499993 0.0278435 0.0219498 0.0005 
448 1 0.00774177 0.0244117 0.0205 0.0005 
450 1 0.00380511 0.0278827 0.0205 0.0005 
451 1 0.000752414 0.0280867 0.0207499 0.00075 
453 1 0.00780544 0.0234133 0.0205 0.0005 
454 1 0.00478618 0.0280763 0.0205 0.0005 
455 1 0.00735167 0.02827 0.0222212 0.0005 
456 1 0.00419928 0.0226303 0.0218839 0.0005 
594 1 0.0028818 0.0282672 0.0205 0.0005 
606 1 0.00203303 0.0283099 0.0216362 0.00075 
457 1 0.0153048 0.0213685 0.0219425 0.0005 
458 1 0.0104776 0.0216185 0.0220494 0.0005 
459 1 0.013668 0.021768 0.0205 0.0005 
460 1 0.0144698 0.0219096 0.0218418 0.0005 
461 1 0.00892494 0.0214938 0.0212499 0.00125 
462 1 0.0102309 0.0226639 0.0214082 0.0005 
463 1 0.00855483 0.0249939 0.0205 0.0005 
464 1 0.00867117 0.025992 0.0205 0.0005 
465 1 0.010942 0.0218222 0.02075 0.00075 
466 1 0.00918713 0.023715 0.0209999 0.001 
467 1 0.00972295 0.0253632 0.02075 0.00075 
468 1 0.0110193 0.0245289 0.0216319 0.00075 
469 1 0.0106072 0.0262106 0.0204999 0.0005 
470 1 0.0104448 0.0243736 0.0205 0.0005 
471 1 0.0138277 0.0238891 0.0204998 0.0005 
473 1 0.0134734 0.0256353 0.0205 0.0005 
474 1 0.0148434 0.0238954 0.0205 0.0005 
475 1 0.0130757 0.0232296 0.0205 0.0005 
476 1 0.0128008 0.022268 0.0205 0.0005 
477 1 0.0118123 0.0254414 0.0213136 0.0005 
478 1 0.0124532 0.0240123 0.0205 0.0005 
479 1 0.0130155 0.0220686 0.0217151 0.00075 
480 1 0.0116141 0.0259879 0.0205 0.0005 
481 1 0.0129695 0.025107 0.0216476 0.00075 
482 1 0.0143281 0.0248987 0.0210409 0.00075 
483 1 0.0123835 0.0252443 0.0205 0.0005 
484 1 0.0132055 0.0246719 0.0204999 0.0005 
485 1 0.0135537 0.0240081 0.021454 0.0005 
486 1 0.015319 0.0254358 0.0205 0.0005 
487 1 0.0110693 0.0233168 0.0207499 0.00075 
488 1 0.0152496 0.0229815 0.0205 0.0005 
489 1 0.0115509 0.0244435 0.0205 0.0005 
490 1 0.0141326 0.0227997 0.0210314 0.00075 
491 1 0.0143949 0.0260235 0.0205 0.0005 
492 1 0.0109464 0.0252401 0.0205 0.0005 
493 1 0.0112009 0.0270152 0.0205 0.0005 
494 1 0.0140785 0.025735 0.0219378 0.0005 
495 1 0.0127814 0.027058 0.0212499 0.00125 
496 1 0.0153262 0.0241881 0.0213879 0.0005 
497 1 0.0148023 0.0269367 0.0204999 0.0005 
498 1 0.0147657 0.0262297 0.0214055 0.0005 
499 1 0.0145213 0.0271641 0.0216644 0.0005 
500 1 0.0159426 0.0264902 0.0207499 0.00075 
501 1 0.0150389 0.0216381 0.0207499 0.00075 
502 1 0.014512 0.0237421 0.0217597 0.0005 
503 1 0.0150752 0.0258439 0.0222746 0.0005 
504 1 0.0128561 0.0232901 0.0214737 0.0005 
505 1 0.0107561 0.0257197 0.021358 0.0005 
506 1 0.015516 0.0275729 0.0212061 0.0005 
507 1 0.0113042 0.026368 0.0218865 0.0005 
508 1 0.0137875 0.0231908 0.0221735 0.0005 
509 1 0.0121773 0.0240403 0.0214607 0.0005 
510 1 0.0104546 0.0254438 0.0222707 0.0005 
511 1 0.0154473 0.0268094 0.0218523 0.0005 
512 1 0.00946864 0.0244472 0.0222784 0.0005 
513 1 0.00949895 0.0254009 0.0219792 0.0005 
514 1 0.011963 0.0227098 0.0213787 0.0005 
515 1 0.0156661 0.024498 0.0205 0.0005 
516 1 0.0157157 0.0228296 0.0219211 0.001 
517 1 0.0113016 0.02801 0.0205 0.0005 
518 1 0.0114776 0.0272037 0.0224081 0.0005 
519 1 0.0144424 0.0280883 0.0208265 0.00075 
520 1 0.0150431 0.028086 0.0219227 0.0005 
521 1 0.0115342 0.0282416 0.0216209 0.0005 
522 1 0.00888585 0.0236063 0.0224653 0.0005 
523 1 0.0141069 0.0245453 0.0222193 0.0005 
525 1 0.0160307 0.0223569 0.0205 0.0005 
526 1 0.0192322 0.0213138 0.0207499 0.00075 
527 1 0.0213532 0.0214791 0.0204999 0.0005 
528 1 0.0201493 0.0215575 0.0215635 0.0005 
529 1 0.0188607 0.0219908 0.0217329 0.0005 
530 1 0.0164076 0.0251554 0.0217816 0.001 
532 1 0.0203831 0.0217359 0.0205 0.0005 
533 1 0.0211385 0.0216596 0.0214597 0.0005 
534 1 0.0234924 0.0219688 0.0214968 0.0005 
535 1 0.0162391 0.0276784 0.0205 0.0005 
536 1 0.0234997 0.0220474 0.0205 0.0005 
537 1 0.0163385 0.0266057 0.0222576 0.0005 
538 1 0.0222022 0.0226119 0.0209999 0.001 
539 1 0.0202026 0.0248756 0.0205004 0.0005 
540 1 0.016645 0.0237619 0.02075 0.00075 
541 1 0.0194506 0.0257732 0.0205 0.0005 
542 1 0.018218 0.0224188 0.02075 0.00075 
543 1 0.0214948 0.0238364 0.0204999 0.0005 
544 1 0.0234982 0.0260073 0.0205 0.0005 
545 1 0.0182742 0.0254107 0.02075 0.00075 
546 1 0.0232502 0.0239908 0.02075 0.00075 
547 1 0.0234999 0.0230905 0.0215808 0.0005 
548 1 0.0235001 0.0270091 0.0204999 0.0005 
549 1 0.0230027 0.0253019 0.0214353 0.00075 
550 1 0.0218993 0.0255392 0.0204999 0.0005 
551 1 0.0181395 0.0239167 0.0207499 0.00075 
552 1 0.0221758 0.0245783 0.0204999 0.0005 
553 1 0.0170056 0.0225916 0.0204999 0.0005 
554 1 0.0170351 0.0258537 0.0204999 0.0005 
555 1 0.0175016 0.0231537 0.0218728 0.00075 
556 1 0.02241 0.0265896 0.0209449 0.00075 
557 1 0.0171784 0.0248641 0.0204999 0.0005 
558 1 0.0200171 0.0232741 0.0212499 0.00125 
559 1 0.021199 0.0247915 0.0204999 0.0005 
560 1 0.0180503 0.0246247 0.0220693 0.00075 
561 1 0.0177005 0.0272292 0.0213528 0.00125 
562 1 0.019143 0.0267247 0.0205 0.0005 
563 1 0.0207895 0.0258769 0.0214507 0.001 
564 1 0.0192778 0.0264502 0.021452 0.0005 
565 1 0.0212924 0.0225307 0.0221898 0.0005 
566 1 0.0192297 0.024645 0.0204999 0.0005 
567 1 0.0234993 0.0271245 0.0214932 0.0005 
568 1 0.0235 0.0262817 0.0220314 0.0005 
569 1 0.0194278 0.0252215 0.0213337 0.0005 
570 1 0.0186513 0.0257885 0.0218802 0.0005 
571 1 0.0230321 0.0278928 0.0205 0.0005 
572 1 0.0224376 0.026232 0.0222089 0.0005 
573 1 0.021509 0.0273329 0.0204999 0.0005 
574 1 0.0200761 0.0280012 0.0212499 0.00125 
575 1 0.0186266 0.0235338 0.0222803 0.0005 
576 1 0.0195472 0.0259692 0.0222862 0.0005 
577 1 0.0235 0.0281232 0.0213532 0.0005 
578 1 0.0189516 0.0267493 0.0224784 0.0005 
579 1 0.00781794 0.0283579 0.0205 0.0005 
580 1 0.000510046 0.0314764 0.0205 0.0005 
581 1 0.00353714 0.0311826 0.0205 0.0005 
582 1 0.00155911 0.0331967 0.02075 0.00075 
583 1 0.00293902 0.0294906 0.02075 0.00075 
584 1 0.00522349 0.0325865 0.02075 0.00075 
585 1 0.000499977 0.0334526 0.0213961 0.0005 
586 1 0.00151987 0.0299763 0.0207499 0.00075 
587 1 0.00301969 0.0327153 0.0205 0.0005 
588 1 0.00217925 0.0315779 0.0209999 0.001 
589 1 0.00191595 0.0288174 0.0205 0.0005 
590 1 0.000500924 0.0292854 0.0205 0.0005 
591 1 0.00657922 0.0337161 0.0205 0.0005 
592 1 0.00401871 0.032807 0.0205 0.0005 
593 1 0.00519299 0.0338108 0.0205 0.0005 
595 1 0.00481412 0.0310662 0.0207499 0.00075 
596 1 0.00535914 0.0299499 0.0205 0.0005 
597 1 0.00625301 0.0314923 0.02075 0.00075 
598 1 0.00390033 0.0302507 0.0205 0.0005 
599 1 0.00644027 0.0327258 0.0205 0.0005 
600 1 0.00764313 0.0343686 0.02075 0.00075 
601 1 0.00414568 0.0292813 0.0204999 0.0005 
602 1 0.00693976 0.0296727 0.0212499 0.00125 
603 1 0.00422509 0.0306605 0.0220684 0.00075 
604 1 0.00542895 0.0304586 0.0216529 0.0005 
605 1 0.00505917 0.0289942 0.0213033 0.00075 
607 1 0.00721866 0.0317734 0.0214922 0.0005 
608 1 0.00618543 0.0310961 0.0219336 0.0005 
609 1 0.000749966 0.0322746 0.0217307 0.00075 
610 1 0.0032644 0.0305787 0.0212721 0.0005 
611 1 0.0054025 0.0317217 0.0216368 0.0005 
612 1 0.000507347 0.0324816 0.0205 0.0005 
613 1 0.00383021 0.0319801 0.0214182 0.00075 
614 1 0.000749966 0.0307749 0.0217595 0.00075 
615 1 0.00373881 0.0286251 0.0211666 0.0005 
616 1 0.00398127 0.0296146 0.0214288 0.0005 
617 1 0.000749984 0.0291883 0.0217679 0.00075 
618 1 0.00148471 0.034611 0.0205 0.0005 
620 1 0.00193123 0.0303812 0.0218696 0.0005 
621 1 0.00509498 0.0297627 0.0222886 0.0005 
622 1 0.00727306 0.032172 0.0205 0.0005 
623 1 0.00713879 0.0311047 0.0222359 0.0005 
624 1 0.00190345 0.032728 0.0219225 0.0005 
625 1 0.00773937 0.0344682 0.0220519 0.0005 
626 1 0.00741195 0.0331624 0.0205 0.0005 
627 1 0.00238066 0.0294879 0.0218683 0.0005 
628 1 0.000509305 0.0338962 0.0205 0.0005 
629 1 0.00450909 0.0287355 0.0223956 0.0005 
631 1 0.00595309 0.0347443 0.0208364 0.00075 
632 1 0.000780911 0.0346314 0.0217027 0.00075 
633 1 0.00690342 0.0348346 0.0216433 0.0005 
634 1 0.000499981 0.0348961 0.0205 0.0005 
635 1 0.00624232 0.0348968 0.022391 0.0005 
636 1 0.00533003 0.0311019 0.0224515 0.0005 
766 1 0.00696862 0.0353909 0.0205 0.0005 
637 1 0.00890628 0.0343778 0.0209648 0.0005 
638 1 0.0129263 0.0288937 0.0220342 0.00075 
639 1 0.00846654 0.0291191 0.0205 0.0005 
640 1 0.00855152 0.0301155 0.0205 0.0005 
641 1 0.0130004 0.0319201 0.02075 0.00075 
642 1 0.0107545 0.0317842 0.0205 0.0005 
643 1 0.0117792 0.032013 0.0205 0.0005 
644 1 0.00807311 0.0312429 0.0207499 0.00075 
645 1 0.0113113 0.0328968 0.0205 0.0005 
646 1 0.0123215 0.0329622 0.0205 0.0005 
647 1 0.0104792 0.0308229 0.0205 0.0005 
648 1 0.0133197 0.0331026 0.0205 0.0005 
649 1 0.00956687 0.0303716 0.0205 0.0005 
650 1 0.0130659 0.0298379 0.0205 0.0005 
651 1 0.0107511 0.0288448 0.0205 0.0005 
652 1 0.00826969 0.0326315 0.0212818 0.00075 
653 1 0.0145947 0.0292529 0.0219268 0.00075 
654 1 0.0118761 0.0306022 0.021 0.001 
655 1 0.0101796 0.0302765 0.0215852 0.00075 
656 1 0.0133265 0.0285475 0.0205 0.0005 
657 1 0.010672 0.0298417 0.0205 0.0005 
658 1 0.0089924 0.0305895 0.0212889 0.0005 
659 1 0.00953061 0.0315976 0.02075 0.00075 
660 1 0.0127389 0.0339179 0.0204999 0.0005 
661 1 0.0144552 0.0292947 0.0204999 0.0005 
662 1 0.0117463 0.0337971 0.0205 0.0005 
663 1 0.0156184 0.029664 0.0207702 0.00075 
664 1 0.0142184 0.0306888 0.021 0.001 
665 1 0.0121512 0.0288922 0.02075 0.00075 
666 1 0.0148771 0.0328255 0.0212499 0.00125 
667 1 0.0155362 0.0304685 0.0217234 0.0005 
668 1 0.00976492 0.0293861 0.0205 0.0005 
669 1 0.0134362 0.0338177 0.0212096 0.0005 
670 1 0.00994955 0.0332782 0.021 0.001 
671 1 0.0136504 0.0292845 0.0210933 0.0005 
672 1 0.0126285 0.0330077 0.0217137 0.00075 
673 1 0.00896304 0.0317614 0.0218515 0.0005 
674 1 0.0118965 0.0320187 0.021493 0.0005 
675 1 0.0109156 0.0321915 0.0213992 0.0005 
676 1 0.0130672 0.0301064 0.0217651 0.0005 
677 1 0.0122063 0.0341566 0.0213119 0.0005 
678 1 0.0155954 0.0284437 0.0204999 0.0005 
679 1 0.00856403 0.0335613 0.0204999 0.0005 
680 1 0.0124003 0.0306767 0.0224034 0.0005 
681 1 0.00837377 0.0338325 0.0216121 0.0005 
682 1 0.00870252 0.0296295 0.0213608 0.0005 
683 1 0.0150814 0.0312911 0.0220688 0.0005 
684 1 0.0100233 0.0320216 0.0218176 0.0005 
685 1 0.00951697 0.0344706 0.0218006 0.0005 
686 1 0.0112125 0.0331055 0.0221989 0.00075 
687 1 0.0121172 0.0339898 0.022294 0.0005 
688 1 0.0107932 0.0342327 0.0217919 0.0005 
689 1 0.0143982 0.034334 0.0205 0.0005 
690 1 0.014202 0.0344233 0.021482 0.0005 
691 1 0.0110981 0.0345584 0.0205 0.0005 
692 1 0.013153 0.034486 0.0218975 0.0005 
693 1 0.0121259 0.0347357 0.0205 0.0005 
694 1 0.0133536 0.0349772 0.02075 0.00075 
695 1 0.0111416 0.035069 0.0213687 0.0005 
696 1 0.00996475 0.0350127 0.0207673 0.00075 
697 1 0.00861109 0.034894 0.0218056 0.0005 
698 1 0.0157725 0.0351596 0.0212499 0.00125 
699 1 0.00832078 0.0293999 0.0222895 0.0005 
700 1 0.012167 0.035236 0.0220637 0.00075 
701 1 0.0138549 0.0302062 0.0223729 0.0005 
702 1 0.00806503 0.0314786 0.0221886 0.0005 
703 1 0.0159106 0.0311575 0.02075 0.00075 
704 1 0.0148726 0.0303523 0.0224623 0.0005 
705 1 0.0160036 0.031639 0.0218997 0.0005 
706 1 0.0162097 0.028542 0.0215841 0.00075 
707 1 0.0168301 0.0284851 0.0205 0.0005 
708 1 0.0180166 0.0291097 0.0207499 0.00075 
709 1 0.0198011 0.0331894 0.0212499 0.00125 
710 1 0.0226125 0.029511 0.0205 0.0005 
711 1 0.0222996 0.0334747 0.0205 0.0005 
712 1 0.0170625 0.0316618 0.0205 0.0005 
713 1 0.0235 0.0338953 0.0205 0.0005 