ITEM: TIMESTEP
490000
ITEM: NUMBER OF ATOMS
3507
ITEM: BOX BOUNDS mm mm mm
-2.4e-06 0.0240024
-7.8e-06 0.0780078
-3e-06 0.030003
ITEM: ATOMS id type x y z radius 
291 1 0.00322565 0.00242137 0.0214999 0.0015 
368 1 0.000503057 0.0021051 0.0205 0.0005 
784 1 0.00536189 0.00445282 0.0207498 0.00075 
32 1 0.00460092 0.000502696 0.0205 0.0005 
241 1 0.00455118 0.00353534 0.0204997 0.0005 
815 1 0.00264792 0.000499999 0.0205 0.0005 
448 1 0.00362799 0.004156 0.0205 0.0005 
300 1 0.000499747 0.0004998 0.0204999 0.0005 
442 1 0.000999392 0.00344163 0.0209997 0.001 
816 1 0.00577118 0.00600924 0.0205 0.0005 
710 1 0.00362637 0.00072684 0.0205 0.0005 
527 1 0.000504419 0.00577363 0.0205 0.0005 
100 1 0.004756 0.003717 0.0215621 0.0005 
153 1 0.00469987 0.00151231 0.0204999 0.0005 
722 1 0.0015047 0.00576271 0.0205 0.0005 
864 1 0.00569504 0.00141453 0.0205 0.0005 
503 1 0.000500021 0.00476522 0.0205 0.0005 
561 1 0.00534044 0.0025872 0.02075 0.00075 
501 1 0.00552117 0.000499975 0.0213157 0.0005 
954 1 0.00609944 0.000499961 0.0204999 0.0005 
587 1 0.000740382 0.000499936 0.0214705 0.0005 
370 1 0.00679496 0.00220457 0.02075 0.00075 
28 1 0.00156762 0.00109879 0.0207498 0.00075 
220 1 0.00712673 0.000773516 0.0211572 0.00075 
2736 1 0.00246935 0.00398081 0.0205 0.0005 
998 1 0.00076467 0.00697906 0.02075 0.00075 
2924 1 0.0019384 0.00485286 0.0205 0.0005 
390 1 0.00223495 0.00415787 0.0214563 0.0005 
151 1 0.00187882 0.000750352 0.0221752 0.00075 
486 1 0.00363068 0.00638977 0.0222498 0.00225 
2921 1 0.000501798 0.00151028 0.0213038 0.0005 
1816 1 0.000500732 0.00622644 0.0217124 0.0005 
2929 1 0.00100754 0.00508931 0.0215955 0.00075 
463 1 0.00592184 0.00344858 0.0214448 0.0005 
1429 1 0.000914118 0.00677912 0.0224377 0.0005 
175 1 0.004676 0.00103095 0.0213761 0.0005 
399 1 0.00182603 0.00364779 0.0222343 0.0005 
3005 1 0.00386889 0.000508303 0.0216506 0.0005 
324 1 0.00768404 0.00511244 0.0220663 0.002 
2872 1 0.000499967 0.000499971 0.022441 0.0005 
307 1 0.00755081 0.00316833 0.0205 0.0005 
1195 1 0.00796025 0.00182179 0.0205 0.0005 
121 1 0.00853326 0.00691604 0.0205 0.0005 
228 1 0.00936058 0.00610413 0.0204998 0.0005 
490 1 0.00977682 0.00511499 0.0205 0.0005 
199 1 0.0115682 0.00392006 0.0205 0.0005 
395 1 0.00980196 0.00320671 0.0205 0.0005 
474 1 0.0130386 0.00192331 0.02075 0.00075 
282 1 0.00985904 0.00145914 0.0205 0.0005 
590 1 0.00956658 0.000499867 0.0204995 0.0005 
176 1 0.0126118 0.000500311 0.0205 0.0005 
289 1 0.0107165 0.000500253 0.0205 0.0005 
362 1 0.0081537 0.000499916 0.0204997 0.0005 
783 1 0.0107093 0.00450122 0.0205013 0.0005 
51 1 0.0125477 0.00370561 0.0205001 0.0005 
233 1 0.00868338 0.00277781 0.0208568 0.00075 
217 1 0.0103592 0.00605879 0.0204997 0.0005 
549 1 0.0100184 0.00563084 0.0213371 0.0005 
126 1 0.0120376 0.00563565 0.021501 0.0015 
676 1 0.0100466 0.000765711 0.0216222 0.00075 
730 1 0.00879409 0.00126793 0.0205 0.0005 
763 1 0.00948369 0.00415501 0.0205 0.0005 
66 1 0.0137918 0.00494042 0.0205 0.0005 
61 1 0.0136748 0.00657795 0.0205 0.0005 
108 1 0.0138272 0.00353721 0.0217833 0.00125 
89 1 0.00886029 0.000499715 0.0212069 0.0005 
155 1 0.0111582 0.00238593 0.0212499 0.00125 
178 1 0.0140842 0.000771799 0.02075 0.00075 
364 1 0.0102181 0.00412305 0.0215961 0.00075 
895 1 0.0112589 0.000499999 0.0213546 0.0005 
598 1 0.0116637 0.000824872 0.0204999 0.0005 
1065 1 0.00857198 0.00137366 0.0223909 0.001 
3344 1 0.0150336 0.0031762 0.0205 0.0005 
3405 1 0.0147163 0.00681511 0.0204999 0.0005 
544 1 0.0151469 0.00585582 0.0217117 0.001 
3364 1 0.0157364 0.00697624 0.0205 0.0005 
31 1 0.016088 0.00158661 0.0214999 0.0015 
161 1 0.0231821 0.000755325 0.0207499 0.00075 
159 1 0.0232273 0.0058091 0.0205 0.0005 
219 1 0.0215719 0.00150102 0.0209999 0.001 
333 1 0.0232498 0.00703477 0.02075 0.00075 
142 1 0.0232506 0.00299061 0.0207549 0.00075 
340 1 0.0214908 0.00657479 0.02075 0.00075 
518 1 0.0197094 0.00182911 0.02075 0.00075 
113 1 0.0183258 0.00344512 0.0205 0.0005 
290 1 0.0182133 0.00163306 0.02075 0.00075 
853 1 0.0188477 0.00494518 0.0208059 0.0005 
400 1 0.0192333 0.000506053 0.0211625 0.0005 
123 1 0.0228536 0.00100023 0.0224512 0.001 
3424 1 0.0228348 0.00274852 0.0219242 0.0005 
3425 1 0.0204901 0.00438171 0.0205158 0.0005 
3431 1 0.0184247 0.000998689 0.0218061 0.0005 
3449 1 0.020573 0.00295449 0.0220795 0.00075 
200 1 0.0218853 0.00344983 0.0211718 0.00075 
3474 1 0.0218094 0.00453759 0.0205135 0.0005 
3488 1 0.0205719 0.00477463 0.0217702 0.0005 
3497 1 0.019783 0.00479065 0.021145 0.0005 
842 1 0.00627406 0.00720069 0.0223904 0.0005 
64 1 0.00638096 0.00775296 0.0209999 0.001 
1778 1 0.0013679 0.00776898 0.02151 0.0005 
380 1 0.00499164 0.00801691 0.0204999 0.0005 
256 1 0.00144576 0.00951977 0.0204997 0.0005 
75 1 0.00207219 0.00846796 0.0207498 0.00075 
887 1 0.00700221 0.00847343 0.022212 0.0005 
1359 1 0.00335414 0.00871288 0.0205 0.0005 
588 1 0.00435513 0.00888819 0.0205 0.0005 
360 1 0.00664178 0.0139958 0.0205 0.0005 
154 1 0.00536314 0.0101552 0.0207498 0.00075 
13 1 0.000499532 0.00984163 0.0204999 0.0005 
879 1 0.00539695 0.00893099 0.0205 0.0005 
137 1 0.00102843 0.01069 0.0204997 0.0005 
44 1 0.00504897 0.0120459 0.0207499 0.00075 
1166 1 0.00579339 0.00878788 0.0222921 0.00075 
1234 1 0.00537762 0.00992588 0.0219824 0.0005 
323 1 0.00300153 0.010734 0.0220338 0.002 
820 1 0.001436 0.0119424 0.0205 0.0005 
713 1 0.00336433 0.013536 0.0205 0.0005 
881 1 0.0005 0.0125385 0.0205001 0.0005 
943 1 0.00375915 0.012616 0.0205 0.0005 
673 1 0.00548843 0.0134799 0.0207498 0.00075 
174 1 0.00193681 0.0133416 0.0209997 0.001 
447 1 0.00607103 0.011371 0.0205 0.0005 
508 1 0.000522388 0.0135382 0.0205005 0.0005 
891 1 0.00634832 0.00923896 0.0205 0.0005 
1190 1 0.00546912 0.0109267 0.0223831 0.0005 
911 1 0.0047489 0.0126576 0.0218324 0.0005 
35 1 0.00734664 0.0104372 0.0217732 0.0015 
2621 1 0.00698181 0.012144 0.0205 0.0005 
1032 1 0.00577331 0.0117499 0.0217247 0.0005 
1085 1 0.000749501 0.0122809 0.0217252 0.00075 
742 1 0.000499888 0.0115386 0.0205 0.0005 
274 1 0.00728456 0.00887366 0.0205 0.0005 
427 1 0.00493664 0.00889963 0.0213879 0.0005 
1407 1 0.000751499 0.00891514 0.0213587 0.00075 
401 1 0.00697342 0.0131477 0.0220473 0.00125 
1617 1 0.00180025 0.00853361 0.0219895 0.0005 
2240 1 0.00221255 0.0130696 0.0224488 0.0005 
1492 1 0.000501573 0.00756055 0.0219656 0.0005 
870 1 0.00779959 0.00760321 0.0205 0.0005 
479 1 0.000516817 0.0140576 0.021356 0.0005 
1070 1 0.00798081 0.00783448 0.0217615 0.00075 
3343 1 0.0143048 0.00743705 0.0222291 0.0005 
3288 1 0.0142187 0.0076244 0.0209931 0.0005 
1067 1 0.00809461 0.0133829 0.0205 0.0005 
209 1 0.0132789 0.00749639 0.0205 0.0005 
872 1 0.00848184 0.0122209 0.0207502 0.00075 
764 1 0.00992033 0.00740806 0.021524 0.00125 
581 1 0.0119438 0.00788314 0.0219634 0.00075 
171 1 0.0128656 0.00864942 0.02075 0.00075 
636 1 0.011364 0.00809268 0.0205 0.0005 
275 1 0.0132726 0.0100931 0.0207542 0.00075 
46 1 0.00859372 0.00878924 0.0207706 0.00075 
556 1 0.0131007 0.0115831 0.0207498 0.00075 
287 1 0.0104021 0.0115019 0.0205003 0.0005 
756 1 0.0111523 0.0099378 0.0215 0.0015 
686 1 0.00937338 0.00973035 0.0205 0.0005 
10 1 0.0153402 0.0103032 0.0205 0.0005 
569 1 0.0116416 0.0116713 0.0205 0.0005 
252 1 0.0097067 0.0122207 0.0205 0.0005 
188 1 0.0147158 0.0141021 0.0215777 0.0015 
772 1 0.0116717 0.0130107 0.0205 0.0005 
709 1 0.00929129 0.0109583 0.02075 0.00075 
1061 1 0.0109082 0.0123646 0.0205 0.0005 
1118 1 0.00964884 0.0116802 0.0217356 0.0005 
968 1 0.0118609 0.0121026 0.0216907 0.00075 
62 1 0.0100655 0.0141668 0.0220278 0.002 
1238 1 0.00982644 0.00882372 0.0204998 0.0005 
1028 1 0.0128956 0.013069 0.02075 0.00075 
1653 1 0.0135981 0.010899 0.0216832 0.0005 
80 1 0.0150443 0.0116924 0.0209997 0.001 
810 1 0.00896138 0.00896378 0.0223419 0.00075 
192 1 0.0145751 0.0100882 0.0215179 0.00075 
1883 1 0.0137598 0.0122275 0.0216885 0.0005 
1056 1 0.015769 0.0124807 0.0221108 0.0005 
938 1 0.00928501 0.0101623 0.0221819 0.0005 
1257 1 0.00870095 0.0120068 0.0219626 0.0005 
1225 1 0.0107883 0.0117828 0.0222557 0.0005 
714 1 0.0158496 0.012855 0.0205 0.0005 
3416 1 0.0141659 0.00878593 0.0205 0.0005 
59 1 0.0120987 0.0140218 0.0205 0.0005 
1080 1 0.0129623 0.0129055 0.022402 0.00075 
109 1 0.0174787 0.00733357 0.0205 0.0005 
652 1 0.0170885 0.00827056 0.0223219 0.0005 
204 1 0.0234569 0.00856342 0.0205 0.0005 
57 1 0.019276 0.00743711 0.0214997 0.0015 
143 1 0.0221618 0.00760008 0.0205 0.0005 
577 1 0.02325 0.00836297 0.0218295 0.00075 
452 1 0.0233474 0.00955742 0.0205 0.0005 
1922 1 0.0161938 0.00954128 0.0205 0.0005 
6 1 0.0218368 0.00897691 0.0209999 0.001 
190 1 0.0168489 0.00850625 0.02075 0.00075 
1846 1 0.0164649 0.0105052 0.0205 0.0005 
342 1 0.0167703 0.0137074 0.0207499 0.00075 
319 1 0.0203784 0.00884007 0.0205 0.0005 
293 1 0.0186727 0.0124306 0.0217498 0.00175 
735 1 0.0203959 0.0109798 0.0214241 0.0005 
308 1 0.0194241 0.00989063 0.0209999 0.001 
49 1 0.0169858 0.0113588 0.0205 0.0005 
146 1 0.0179357 0.00914466 0.0205 0.0005 
578 1 0.0229459 0.0109226 0.0209999 0.001 
90 1 0.0177554 0.00922477 0.0217343 0.00075 
71 1 0.0209208 0.0102022 0.0205 0.0005 
659 1 0.0176958 0.010355 0.02075 0.00075 
967 1 0.0167876 0.0123389 0.0205 0.0005 
130 1 0.020265 0.0134124 0.0204998 0.0005 
41 1 0.0213132 0.0115001 0.0207499 0.00075 
231 1 0.0234998 0.0122238 0.0205 0.0005 
279 1 0.0234883 0.00961232 0.0214888 0.0005 
693 1 0.020578 0.00941336 0.0218311 0.0005 
725 1 0.0223421 0.0125952 0.0207904 0.00075 
697 1 0.0201038 0.0112255 0.0204999 0.0005 
330 1 0.022331 0.0140946 0.0207501 0.00075 
800 1 0.0205432 0.0124521 0.0204998 0.0005 
538 1 0.0235 0.0134908 0.0205 0.0005 
812 1 0.0212713 0.0134807 0.0205 0.0005 
592 1 0.0179176 0.0141415 0.0204996 0.0005 
910 1 0.0214626 0.010471 0.0218305 0.00075 
1899 1 0.0164271 0.0126537 0.021378 0.0005 
1138 1 0.0214136 0.0122223 0.0220617 0.00075 
770 1 0.0233658 0.013023 0.0213735 0.0005 
1517 1 0.0208725 0.0131503 0.0213554 0.0005 
1287 1 0.0235 0.0123919 0.0221376 0.0005 
737 1 0.00568189 0.014697 0.0205 0.0005 
646 1 0.00242152 0.0147051 0.0205 0.0005 
521 1 0.0024227 0.0157305 0.0205 0.0005 
439 1 0.00719494 0.0155066 0.02125 0.00125 
196 1 0.000919672 0.0144614 0.0205 0.0005 
782 1 0.00050313 0.0150541 0.0214413 0.0005 
70 1 0.000499978 0.0153921 0.0205 0.0005 
888 1 0.00525977 0.0180942 0.0205 0.0005 
550 1 0.00303946 0.016548 0.0205037 0.0005 
529 1 0.00124901 0.0167953 0.0212493 0.00125 
1077 1 0.00707462 0.0180878 0.0205 0.0005 
1004 1 0.00665259 0.0197816 0.02075 0.00075 
688 1 0.00052619 0.0202609 0.0205 0.0005 
972 1 0.00593036 0.0170538 0.02075 0.00075 
1094 1 0.00746707 0.0212104 0.0218733 0.00075 
430 1 0.0022686 0.0195055 0.0221633 0.0005 
1829 1 0.00740155 0.0174157 0.0214483 0.0005 
1696 1 0.00609049 0.0170123 0.0219889 0.0005 
436 1 0.00715631 0.0170908 0.0205 0.0005 
3191 1 0.00246517 0.0196862 0.0205 0.0005 
3402 1 0.000573161 0.0155295 0.0223184 0.0005 
1726 1 0.000499991 0.0205507 0.0215045 0.0005 
1884 1 0.00367832 0.0198823 0.0212892 0.0005 
3441 1 0.00431262 0.0199639 0.0205008 0.0005 
1060 1 0.00701931 0.0168649 0.0223402 0.0005 
1293 1 0.00339633 0.0209448 0.0205 0.0005 
678 1 0.0017746 0.0211596 0.0209999 0.001 
3473 1 0.00596635 0.0208612 0.0217689 0.0005 
3475 1 0.00130123 0.0187925 0.0217279 0.0005 
3483 1 0.000550127 0.0194565 0.0222274 0.0005 
865 1 0.0129872 0.0144922 0.0205 0.0005 
695 1 0.00823127 0.0171706 0.0223522 0.00075 
1859 1 0.00822453 0.0204265 0.0204998 0.0005 
269 1 0.0083455 0.0189242 0.0213886 0.00125 
734 1 0.01266 0.015012 0.0216653 0.00075 
974 1 0.0116833 0.0153053 0.0204997 0.0005 
1 1 0.00839121 0.0170295 0.0207499 0.00075 
624 1 0.0137854 0.0156608 0.02242 0.0005 
611 1 0.00879768 0.0156927 0.0205 0.0005 
110 1 0.0136681 0.0154206 0.0204997 0.0005 
2226 1 0.0126695 0.0154681 0.0204999 0.0005 
877 1 0.0108256 0.0185719 0.0205793 0.0005 
1570 1 0.00950524 0.0198875 0.0205 0.0005 
54 1 0.00993358 0.0175522 0.0222072 0.001 
118 1 0.0144071 0.0168178 0.02125 0.00125 
717 1 0.0118024 0.0183736 0.0205 0.0005 
1232 1 0.0109206 0.0159519 0.0205 0.0005 
934 1 0.0123042 0.0194908 0.0207499 0.00075 
1310 1 0.012828 0.0169036 0.0205 0.0005 
1212 1 0.014895 0.019247 0.0205 0.0005 
1035 1 0.0110546 0.0169428 0.0205 0.0005 
1592 1 0.0110806 0.0195351 0.0204999 0.0005 
1697 1 0.0104219 0.0202869 0.0204998 0.0005 
2033 1 0.0128886 0.0197929 0.0218126 0.0005 
1264 1 0.0113814 0.0205686 0.0205 0.0005 
1164 1 0.0125193 0.0209732 0.0208228 0.00075 
982 1 0.014143 0.0207363 0.0205 0.0005 
1448 1 0.0119515 0.0173849 0.0204999 0.0005 
2386 1 0.0130292 0.018178 0.0207499 0.00075 
2420 1 0.0133634 0.0201095 0.0205 0.0005 
2431 1 0.0143655 0.0183986 0.0205 0.0005 
2287 1 0.013751 0.0191877 0.0205 0.0005 
2500 1 0.0142959 0.019879 0.0209916 0.0005 
2378 1 0.0138792 0.0191187 0.0214898 0.0005 
2447 1 0.012971 0.0186034 0.0221873 0.00075 
2086 1 0.0127831 0.0161677 0.0212053 0.0005 
1311 1 0.0151745 0.0203503 0.0205 0.0005 
2645 1 0.0149435 0.0184781 0.021397 0.0005 
1376 1 0.00986376 0.0188951 0.0205 0.0005 
2392 1 0.0112097 0.017788 0.0210803 0.0005 
1757 1 0.0144052 0.0207782 0.0214641 0.0005 
2594 1 0.0134295 0.0206055 0.0215963 0.0005 
2897 1 0.00938688 0.0178036 0.0205 0.0005 
1338 1 0.0153638 0.018341 0.0205 0.0005 
2978 1 0.00982512 0.0165895 0.0207499 0.00075 
2989 1 0.0116538 0.0186726 0.0214426 0.0005 
2598 1 0.0150626 0.0196962 0.0222679 0.001 
2289 1 0.0121487 0.0178047 0.0215546 0.0005 
3051 1 0.0120539 0.0162699 0.0205001 0.0005 
3061 1 0.0087483 0.0162609 0.0216686 0.0005 
3029 1 0.0119363 0.0202282 0.0216897 0.0005 
3080 1 0.0120476 0.0168337 0.0213287 0.0005 
2473 1 0.0141903 0.0183572 0.0220586 0.0005 
43 1 0.0155294 0.0155768 0.0204998 0.0005 
3118 1 0.010938 0.0164474 0.02139 0.0005 
2294 1 0.0129297 0.0173668 0.0220105 0.0005 
3001 1 0.0125939 0.0208765 0.0220735 0.0005 
3168 1 0.0127333 0.0163986 0.0221769 0.0005 
3174 1 0.0103797 0.0176809 0.0204998 0.0005 
3188 1 0.0113816 0.017281 0.0219254 0.0005 
3010 1 0.0111724 0.020865 0.0215859 0.0005 
3215 1 0.0116726 0.0163709 0.0222207 0.0005 
1247 1 0.0104966 0.0195257 0.0218854 0.001 
2511 1 0.0158497 0.0174667 0.0205 0.0005 
2460 1 0.0158323 0.0195954 0.0205 0.0005 
1772 1 0.0117479 0.0186656 0.0224381 0.0005 
2681 1 0.0152224 0.0212642 0.0219298 0.0005 
941 1 0.0117871 0.0158568 0.0213707 0.0005 
3257 1 0.0121357 0.0195873 0.0224377 0.0005 
189 1 0.0159701 0.0164742 0.0205 0.0005 
2060 1 0.0090404 0.0201192 0.0224617 0.0005 
794 1 0.0166885 0.0142482 0.0218738 0.0005 
956 1 0.0189597 0.0142961 0.0205 0.0005 
272 1 0.0234999 0.0145009 0.0205 0.0005 
2494 1 0.0186562 0.014705 0.0222035 0.0005 
1236 1 0.017573 0.0146362 0.0221951 0.0005 
1498 1 0.0181255 0.0146021 0.0213623 0.0005 
2117 1 0.0161738 0.0166481 0.0214656 0.0005 
944 1 0.0235 0.0146376 0.0214905 0.0005 
523 1 0.0183031 0.0150761 0.0205 0.0005 
639 1 0.0225282 0.0151944 0.0214597 0.0005 
350 1 0.0204796 0.0151308 0.0214998 0.0015 
78 1 0.0228071 0.0152227 0.0204998 0.0005 
139 1 0.016937 0.0154422 0.0209997 0.001 
1193 1 0.0183781 0.0157024 0.0213289 0.0005 
345 1 0.0189124 0.015869 0.0205 0.0005 
741 1 0.0179463 0.0166486 0.0214513 0.0005 
450 1 0.0180284 0.0163513 0.0205 0.0005 
947 1 0.0173624 0.0183699 0.0204999 0.0005 
591 1 0.0223041 0.0163088 0.0208598 0.00075 
465 1 0.0181393 0.0177397 0.0204998 0.0005 
719 1 0.0190465 0.0170198 0.0209695 0.00075 
628 1 0.0235002 0.017346 0.0204999 0.0005 
42 1 0.0224198 0.0179224 0.0207498 0.00075 
747 1 0.0211841 0.0167301 0.0204999 0.0005 
813 1 0.0200734 0.017832 0.0205 0.0005 
787 1 0.0182979 0.0187268 0.0204999 0.0005 
492 1 0.019134 0.0181749 0.0204999 0.0005 
238 1 0.0235 0.0186274 0.0204999 0.0005 
1216 1 0.0195554 0.0185504 0.0216176 0.00075 
1230 1 0.0170528 0.0171749 0.0207498 0.00075 
566 1 0.0207391 0.01886 0.0207499 0.00075 
1333 1 0.0212104 0.0177296 0.0204999 0.0005 
1091 1 0.0195263 0.0191237 0.0205 0.0005 
1398 1 0.0212726 0.0212655 0.0205 0.0005 
1189 1 0.0235001 0.0155706 0.021131 0.0005 
1427 1 0.0201903 0.0168388 0.0204998 0.0005 
898 1 0.0183774 0.018957 0.0215204 0.0005 
1452 1 0.0204003 0.0203356 0.0207497 0.00075 
1488 1 0.0184842 0.0199367 0.0207514 0.00075 
1124 1 0.0235003 0.0163461 0.0204998 0.0005 
1020 1 0.0225006 0.020042 0.0214999 0.0015 
1401 1 0.0214947 0.0173315 0.0221124 0.001 
1298 1 0.0201946 0.0173438 0.0213642 0.0005 
1170 1 0.0232501 0.0171121 0.021702 0.00075 
1831 1 0.0174282 0.0192708 0.0215612 0.0005 
1320 1 0.0192108 0.0212485 0.0207497 0.00075 
1184 1 0.0234999 0.0183102 0.0214482 0.0005 
1692 1 0.0193441 0.0197825 0.0216459 0.0005 
1828 1 0.0176556 0.0182685 0.0214505 0.0005 
1202 1 0.0206737 0.020743 0.0219107 0.0005 
1984 1 0.0193971 0.0207607 0.0218878 0.0005 
1738 1 0.0173995 0.0193692 0.0204999 0.0005 
1648 1 0.0167901 0.020875 0.0212571 0.00125 
2467 1 0.0163635 0.0183244 0.0204999 0.0005 
1434 1 0.0232499 0.015755 0.0223415 0.00075 
1796 1 0.0200195 0.0201469 0.0223753 0.0005 
1865 1 0.0165697 0.019156 0.0210152 0.0005 
1767 1 0.0208035 0.0186558 0.0219814 0.0005 
1929 1 0.0205662 0.0195974 0.0217441 0.0005 
2072 1 0.0235002 0.0185705 0.0224137 0.0005 
2099 1 0.0196799 0.016898 0.0220965 0.0005 
838 1 0.0162966 0.0181244 0.0220691 0.001 
2396 1 0.0170389 0.0168267 0.0219501 0.0005 
2547 1 0.0188931 0.016279 0.0219641 0.0005 
1941 1 0.0177533 0.01594 0.0224651 0.00075 
896 1 0.0077922 0.021328 0.0205 0.0005 
700 1 0.006013 0.0215837 0.02075 0.00075 
1416 1 0.00320007 0.0221506 0.0205 0.0005 
1578 1 0.00559936 0.022762 0.0205 0.0005 
482 1 0.000502132 0.022182 0.0205 0.0005 
12 1 0.00214424 0.0228517 0.0207499 0.00075 
952 1 0.00577034 0.0253316 0.0204999 0.0005 
1439 1 0.00667054 0.0245015 0.02075 0.00075 
831 1 0.00493633 0.0240112 0.0209999 0.001 
534 1 0.000749943 0.0234046 0.02075 0.00075 
1423 1 0.00135534 0.0265783 0.0212786 0.0005 
1406 1 0.00049999 0.0256035 0.0205 0.0005 
483 1 0.00049997 0.0266034 0.0205 0.0005 
1483 1 0.00797964 0.0223101 0.0205 0.0005 
1512 1 0.00289455 0.0261417 0.0204999 0.0005 
752 1 0.00600053 0.027049 0.0204998 0.0005 
1805 1 0.00358382 0.0251296 0.02075 0.00075 
1576 1 0.000499992 0.0246035 0.0205 0.0005 
1373 1 0.00678751 0.0260135 0.0207499 0.00075 
1860 1 0.00381607 0.0229517 0.0205 0.0005 
1625 1 0.000506814 0.0224153 0.0214743 0.0005 
1455 1 0.00183288 0.0251259 0.0209998 0.001 
1942 1 0.00680534 0.0230074 0.02075 0.00075 
1926 1 0.000530275 0.0251393 0.0217459 0.0005 
1520 1 0.00687778 0.027246 0.0209367 0.0005 
1143 1 0.00289431 0.0273594 0.0207816 0.00075 
2021 1 0.00790469 0.0266217 0.0205 0.0005 
980 1 0.00508076 0.0274408 0.0205 0.0005 
1825 1 0.000499976 0.0260711 0.0213839 0.0005 
2481 1 0.00769676 0.0276171 0.0204997 0.0005 
2583 1 0.00477424 0.0254166 0.0204999 0.0005 
1893 1 0.000499985 0.0258366 0.0224716 0.0005 
2706 1 0.000500011 0.0267864 0.0221586 0.0005 
348 1 0.00198217 0.026551 0.0205 0.0005 
775 1 0.00520507 0.0264079 0.0219203 0.00125 
1662 1 0.00322268 0.023764 0.0212544 0.00075 
2168 1 0.00714587 0.0272032 0.0221566 0.00075 
2244 1 0.00126477 0.0272476 0.0205 0.0005 
2852 1 0.00419235 0.0262297 0.0205 0.0005 
2884 1 0.00355581 0.0264075 0.0212503 0.0005 
2920 1 0.00616626 0.0279494 0.0219424 0.0005 
1474 1 0.00580044 0.0228844 0.0214831 0.0005 
1449 1 0.00195289 0.0281317 0.0205 0.0005 
2833 1 0.00434083 0.0278659 0.0212346 0.0005 
2427 1 0.00410447 0.0272256 0.0204999 0.0005 
1991 1 0.00623191 0.0242239 0.0221571 0.00075 
2813 1 0.00147275 0.0275608 0.0214265 0.0005 
1209 1 0.000500146 0.0272428 0.0212688 0.0005 
2922 1 0.00255984 0.0273963 0.0222433 0.00075 
3065 1 0.00512939 0.0281994 0.0217523 0.0005 
1861 1 0.00319379 0.0255263 0.0224093 0.001 
2449 1 0.00719929 0.0281596 0.0211855 0.0005 
3417 1 0.00406156 0.0218092 0.0215158 0.00075 
2207 1 0.00262707 0.0216316 0.0221403 0.0005 
1480 1 0.00597913 0.0282742 0.0207499 0.00075 
2143 1 0.00772779 0.023548 0.0213979 0.0005 
1702 1 0.000499994 0.028182 0.0219651 0.0005 
2565 1 0.00788688 0.02436 0.0204999 0.0005 
2864 1 0.00384412 0.0282153 0.0223353 0.00075 
1451 1 0.00377563 0.0282412 0.0205 0.0005 
1835 1 0.0108331 0.0214283 0.0223392 0.0005 
1577 1 0.013592 0.0215707 0.0205 0.0005 
1775 1 0.0142674 0.0217713 0.0217491 0.0005 
600 1 0.00939101 0.0214208 0.0213439 0.00125 
1144 1 0.0106329 0.0226736 0.0215586 0.0005 
1650 1 0.00809389 0.0233035 0.0205 0.0005 
946 1 0.00802868 0.0251584 0.0220645 0.00125 
904 1 0.0087532 0.0248591 0.0204999 0.0005 
1081 1 0.00874025 0.0260169 0.0205 0.0005 
1343 1 0.0112644 0.0217915 0.0207499 0.00075 
1394 1 0.00943777 0.0236538 0.0210729 0.001 
1698 1 0.0098265 0.0254484 0.02075 0.00075 
1342 1 0.0110748 0.0245226 0.0216527 0.00075 
978 1 0.0107945 0.0263233 0.0204998 0.0005 
1208 1 0.0105599 0.0244677 0.0205 0.0005 
1350 1 0.0136089 0.0238269 0.0205003 0.0005 
919 1 0.00955899 0.0277203 0.0217578 0.00175 
780 1 0.0134918 0.0256871 0.0204999 0.0005 
353 1 0.0146059 0.0237523 0.0205 0.0005 
1294 1 0.0128755 0.0231473 0.0205004 0.0005 
1180 1 0.0127786 0.0221523 0.0204999 0.0005 
1462 1 0.0118747 0.0255642 0.021327 0.0005 
1467 1 0.0124557 0.0240547 0.0204999 0.0005 
1552 1 0.0129611 0.0220359 0.0217848 0.00075 
1602 1 0.0117735 0.0261203 0.0204999 0.0005 
1621 1 0.013044 0.0252148 0.021645 0.00075 
861 1 0.0143407 0.0248868 0.0209607 0.00075 
1643 1 0.0123857 0.0253297 0.0205 0.0005 
1539 1 0.0131889 0.0247343 0.0204999 0.0005 
1330 1 0.0135563 0.0240767 0.021573 0.0005 
1192 1 0.0152922 0.0255535 0.0204999 0.0005 
1614 1 0.0113625 0.0232891 0.0207502 0.00075 
1693 1 0.0151396 0.022907 0.0204999 0.0005 
1618 1 0.0115595 0.0244977 0.0205005 0.0005 
1221 1 0.0139725 0.0226947 0.0208933 0.00075 
1915 1 0.0144238 0.0260493 0.0204999 0.0005 
1869 1 0.0110475 0.0253562 0.0204999 0.0005 
2193 1 0.0113719 0.0271396 0.0205 0.0005 
2263 1 0.0141505 0.0257671 0.0218272 0.0005 
2270 1 0.0129528 0.0271733 0.0212498 0.00125 
1753 1 0.0151369 0.0240336 0.0214084 0.0005 
862 1 0.014788 0.0269831 0.0205 0.0005 
2004 1 0.0147005 0.0264638 0.0213667 0.0005 
1958 1 0.0146542 0.0273902 0.02174 0.0005 
2243 1 0.0159476 0.026588 0.0207499 0.00075 
1017 1 0.0150012 0.0216125 0.0207498 0.00075 
2348 1 0.0143596 0.0235104 0.0217577 0.0005 
1955 1 0.0150769 0.0258951 0.0221862 0.0005 
2603 1 0.013 0.0232496 0.0214878 0.0005 
2121 1 0.0108559 0.0258087 0.0213714 0.0005 
2261 1 0.0155623 0.0276142 0.0213504 0.0005 
2026 1 0.0115016 0.0264023 0.0218521 0.0005 
2662 1 0.0136927 0.0229418 0.0222392 0.0005 
2201 1 0.0122772 0.0241386 0.0214803 0.0005 
1931 1 0.010732 0.0255205 0.0223228 0.0005 
2419 1 0.0154908 0.0267655 0.0218998 0.0005 
2097 1 0.00975897 0.0245265 0.0222499 0.0005 
2411 1 0.00978636 0.025494 0.0219985 0.0005 
1682 1 0.0118904 0.0227389 0.0217404 0.0005 
1288 1 0.0159737 0.0223561 0.0204998 0.0005 
1563 1 0.0155521 0.0240822 0.0205 0.0005 
1794 1 0.0156516 0.0227261 0.0219329 0.001 
1935 1 0.0114111 0.0281387 0.0205 0.0005 
2463 1 0.0116524 0.027197 0.0224414 0.0005 
1870 1 0.0146102 0.0281886 0.0207793 0.00075 
1987 1 0.0151881 0.0282909 0.0219843 0.0005 
1598 1 0.0200655 0.0214847 0.0216301 0.0005 
1963 1 0.019087 0.021708 0.0219814 0.0005 
144 1 0.0161943 0.0250797 0.0216018 0.001 
1881 1 0.0164531 0.0238815 0.0224682 0.0005 
1105 1 0.0203601 0.0216777 0.0205 0.0005 
1460 1 0.0210487 0.0215441 0.0214343 0.0005 
1437 1 0.023499 0.0218804 0.0214999 0.0005 
1768 1 0.0163412 0.0277475 0.0204998 0.0005 
957 1 0.0234947 0.0218702 0.0205 0.0005 
1837 1 0.0164177 0.0264663 0.022128 0.0005 
1219 1 0.0221493 0.0224662 0.0209999 0.001 
152 1 0.0202336 0.0247437 0.0204998 0.0005 
1292 1 0.0166921 0.0236346 0.0207501 0.00075 
512 1 0.0194578 0.025765 0.0205 0.0005 
1048 1 0.0181895 0.0223461 0.02075 0.00075 
1415 1 0.0214749 0.0237092 0.0205 0.0005 
1087 1 0.0234997 0.026099 0.0205 0.0005 
1176 1 0.0182972 0.0253401 0.0207499 0.00075 
1269 1 0.0232503 0.0238033 0.02075 0.00075 
1507 1 0.0234769 0.0232993 0.0218711 0.0005 
1574 1 0.0234991 0.0271176 0.0204993 0.0005 
1472 1 0.0230433 0.0252074 0.0212501 0.00075 
1590 1 0.0220635 0.0254228 0.0205 0.0005 
1634 1 0.018179 0.0238454 0.0207499 0.00075 
908 1 0.0221997 0.024432 0.0204999 0.0005 
1646 1 0.0169693 0.0224421 0.0204997 0.0005 
1927 1 0.0170711 0.0257198 0.0205 0.0005 
1897 1 0.0174004 0.0227864 0.0219472 0.00075 
1370 1 0.0224198 0.0265989 0.0208826 0.00075 
1978 1 0.0172335 0.0247331 0.0205 0.0005 
1514 1 0.0199975 0.0231989 0.021287 0.00125 
1925 1 0.0212312 0.0246794 0.0204999 0.0005 
1527 1 0.0176599 0.0242625 0.0220981 0.00075 
1106 1 0.0177867 0.0271894 0.0213125 0.00125 
1323 1 0.0192786 0.0267691 0.0205 0.0005 
1267 1 0.0208126 0.0259623 0.0211548 0.001 
1910 1 0.0193979 0.0265237 0.0214656 0.0005 
2162 1 0.0211968 0.0222587 0.022149 0.0005 
3251 1 0.0192491 0.0245704 0.0204997 0.0005 
1974 1 0.0235007 0.027221 0.0214931 0.0005 
3363 1 0.0234996 0.0262492 0.021813 0.0005 
3370 1 0.0196067 0.0250712 0.0213152 0.0005 
3378 1 0.0185034 0.0251784 0.0219722 0.0005 
1329 1 0.023338 0.0281103 0.0205002 0.0005 
3335 1 0.0228673 0.0257283 0.0223863 0.0005 
1015 1 0.0215429 0.0274099 0.0205 0.0005 
1044 1 0.0201245 0.0281019 0.0212559 0.00125 
2065 1 0.0184997 0.023341 0.0221832 0.0005 
3340 1 0.0197155 0.0259102 0.0221902 0.0005 
1812 1 0.0234998 0.0282396 0.0214843 0.0005 
2325 1 0.0189998 0.026573 0.0224129 0.0005 
1285 1 0.000749984 0.0283582 0.0207531 0.00075 
1103 1 0.00475493 0.0284495 0.0205 0.0005 
138 1 0.00791092 0.0285937 0.0204998 0.0005 
162 1 0.000514419 0.0316456 0.0205 0.0005 
259 1 0.00363222 0.0314104 0.0205 0.0005 
522 1 0.00157557 0.0334094 0.0207499 0.00075 
337 1 0.00291924 0.02983 0.0207499 0.00075 
638 1 0.00524553 0.0327547 0.0207553 0.00075 
506 1 0.000499973 0.0336531 0.0213823 0.0005 
1084 1 0.00148835 0.0302794 0.0207499 0.00075 
1355 1 0.00305819 0.0329995 0.0205 0.0005 
412 1 0.00227344 0.0318232 0.0210004 0.001 
1607 1 0.00191359 0.0291309 0.0205 0.0005 
1290 1 0.000499919 0.0295564 0.0205 0.0005 
1761 1 0.00652821 0.0339098 0.0204999 0.0005 
1760 1 0.00405708 0.0330459 0.0205 0.0005 
1611 1 0.00517419 0.0339761 0.0204999 0.0005 
2278 1 0.00284079 0.028597 0.0205 0.0005 
2306 1 0.00485824 0.0313057 0.0207498 0.00075 
2343 1 0.00548694 0.0302547 0.0204999 0.0005 
2387 1 0.00630677 0.0316948 0.0207499 0.00075 
2407 1 0.00396824 0.0304637 0.0205 0.0005 
2421 1 0.00646573 0.0329099 0.0204999 0.0005 
672 1 0.00765448 0.0345734 0.0207597 0.00075 
2537 1 0.00413592 0.0294708 0.0205 0.0005 
1872 1 0.00702742 0.0298998 0.0212582 0.00125 
1792 1 0.00431228 0.0309188 0.0220921 0.00075 
2484 1 0.00549132 0.0306596 0.0216125 0.0005 
2573 1 0.00510072 0.0293645 0.0212879 0.00075 
1993 1 0.00201462 0.0286638 0.021655 0.00075 
2455 1 0.00727536 0.0320137 0.0214727 0.0005 
2622 1 0.00619681 0.0312939 0.0219288 0.0005 
1291 1 0.000789326 0.0324703 0.0216646 0.00075 
2548 1 0.00320496 0.0307699 0.0215228 0.0005 
2570 1 0.00546208 0.0319173 0.0216575 0.0005 
897 1 0.000499964 0.0328202 0.0205 0.0005 
1168 1 0.00391632 0.0322416 0.0214474 0.00075 
1136 1 0.0007499 0.0309824 0.0218499 0.00075 
2381 1 0.00395418 0.0288564 0.0212678 0.0005 
2530 1 0.00399932 0.0299499 0.0213672 0.0005 
2154 1 0.000749991 0.0294626 0.0217684 0.00075 
535 1 0.00154555 0.0346887 0.0205 0.0005 
2604 1 0.00649058 0.0334103 0.0221766 0.00125 
2371 1 0.0019634 0.030697 0.0219413 0.0005 
2660 1 0.00519564 0.0300662 0.0223611 0.0005 
2337 1 0.00731874 0.0323844 0.0205 0.0005 
2456 1 0.00723383 0.0313484 0.022218 0.0005 
2628 1 0.00191895 0.0329289 0.0219506 0.0005 
2874 1 0.0076652 0.0347032 0.0220721 0.0005 
835 1 0.00737789 0.0333825 0.0204999 0.0005 
2759 1 0.00243367 0.0298154 0.0219015 0.0005 
2152 1 0.000576266 0.0341175 0.0205 0.0005 
2631 1 0.00468075 0.0291454 0.0224446 0.0005 
249 1 0.00347099 0.0348862 0.0220874 0.002 
1529 1 0.00590035 0.0349484 0.0207992 0.00075 
2998 1 0.00739335 0.0284283 0.0221319 0.0005 
1281 1 0.00074995 0.0348378 0.0216928 0.00075 
2937 1 0.00685802 0.035052 0.0215958 0.0005 
316 1 0.000499948 0.0351145 0.0204999 0.0005 
2840 1 0.00635378 0.0351321 0.0224569 0.0005 
2718 1 0.00352682 0.0296737 0.022491 0.00075 
2493 1 0.00890009 0.0345805 0.0210425 0.0005 
2393 1 0.0117245 0.0283598 0.021668 0.0005 
2301 1 0.013024 0.0290177 0.0221361 0.00075 
505 1 0.00860113 0.0293211 0.0204999 0.0005 
886 1 0.00854759 0.0303215 0.0205 0.0005 
1249 1 0.013041 0.0320753 0.02075 0.00075 
1154 1 0.010827 0.0319537 0.0205 0.0005 
609 1 0.0118159 0.0321022 0.0204999 0.0005 
1134 1 0.00814367 0.0314793 0.0207499 0.00075 
1340 1 0.0113288 0.0329757 0.0205 0.0005 
1678 1 0.0123245 0.0330685 0.0205 0.0005 
1703 1 0.0105661 0.0309743 0.0204999 0.0005 
1095 1 0.0134008 0.0332459 0.0205 0.0005 
1815 1 0.00952683 0.0305283 0.0205 0.0005 
1348 1 0.0131197 0.0298952 0.0204998 0.0005 
2043 1 0.0109117 0.0290049 0.0204999 0.0005 
1867 1 0.00822761 0.0328846 0.02127 0.00075 
1793 1 0.0146002 0.0293936 0.022009 0.00075 
2242 1 0.0119514 0.0306916 0.021 0.001 
2245 1 0.010249 0.0304084 0.0215762 0.00075 
2266 1 0.0134869 0.0286616 0.0205 0.0005 
1954 1 0.010725 0.0299872 0.0204999 0.0005 
1762 1 0.00902744 0.0308192 0.0213379 0.0005 
640 1 0.00961879 0.0317501 0.02075 0.00075 
2323 1 0.0127401 0.0339965 0.0205 0.0005 
2362 1 0.0144512 0.0293964 0.0204998 0.0005 
2347 1 0.0117464 0.0338844 0.0205 0.0005 
1361 1 0.0156122 0.0297791 0.0207593 0.00075 
2202 1 0.0142092 0.0307966 0.0209999 0.001 
2451 1 0.0122893 0.0289929 0.02075 0.00075 
1083 1 0.0149448 0.032908 0.021251 0.00125 
2305 1 0.0155784 0.0305493 0.0217431 0.0005 
2225 1 0.00981612 0.0295699 0.0205 0.0005 
2408 1 0.0135094 0.0339086 0.0212409 0.0005 
2304 1 0.00999289 0.0334411 0.021 0.001 
2574 1 0.0136921 0.0293964 0.0211503 0.0005 
2404 1 0.0126315 0.0331528 0.0217099 0.00075 
2390 1 0.00886852 0.0318273 0.0217468 0.0005 
2252 1 0.0119795 0.0321102 0.0214864 0.0005 
2577 1 0.0110038 0.032399 0.021378 0.0005 
2505 1 0.013103 0.0302396 0.0218498 0.0005 
2247 1 0.0121863 0.0342552 0.021323 0.0005 
1786 1 0.0157683 0.0285667 0.0204999 0.0005 
2469 1 0.0086013 0.0337955 0.0205 0.0005 
2379 1 0.0124216 0.0307232 0.022424 0.0005 
2612 1 0.00832763 0.0340622 0.0216806 0.0005 