ITEM: TIMESTEP
370000
ITEM: NUMBER OF ATOMS
2972
ITEM: BOX BOUNDS mm mm mm
-2.4e-06 0.0240024
-7.8e-06 0.0780078
-3e-06 0.030003
ITEM: ATOMS id type x y z radius 
291 1 0.00422534 0.00224754 0.0214999 0.0015 
368 1 0.000500524 0.00151986 0.0205023 0.0005 
784 1 0.00593047 0.00402094 0.02075 0.00075 
32 1 0.00570288 0.000731997 0.0205 0.0005 
241 1 0.00590648 0.00276816 0.0205 0.0005 
815 1 0.00330133 0.000693917 0.0205 0.0005 
448 1 0.00471178 0.00415684 0.0205 0.0005 
300 1 0.000500428 0.00050328 0.0205 0.0005 
442 1 0.00172751 0.00254286 0.0209999 0.001 
816 1 0.00636985 0.00538288 0.0205 0.0005 
710 1 0.00472914 0.000504332 0.0205 0.0005 
527 1 0.00119941 0.00587352 0.0206311 0.0005 
100 1 0.00624863 0.00262813 0.0216616 0.0005 
153 1 0.00590669 0.00171669 0.0205 0.0005 
722 1 0.00273417 0.00614362 0.0205 0.0005 
864 1 0.00615437 0.00151294 0.0214471 0.0005 
503 1 0.000565156 0.00345329 0.0205 0.0005 
561 1 0.00702619 0.00227196 0.02075 0.00075 
501 1 0.0068158 0.000759925 0.0214554 0.0005 
64 1 0.0070682 0.00682845 0.0210028 0.001 
954 1 0.00667569 0.00049999 0.0205 0.0005 
380 1 0.00567219 0.00704554 0.0204995 0.0005 
587 1 0.00050493 0.00145355 0.0215089 0.0005 
370 1 0.00782606 0.00100304 0.0207509 0.00075 
28 1 0.0017033 0.000775245 0.0211374 0.00075 
220 1 0.00784911 0.000751298 0.0222294 0.00075 
2736 1 0.00366358 0.00401058 0.0205 0.0005 
998 1 0.00165706 0.00662676 0.0215449 0.00075 
842 1 0.00723708 0.00658891 0.0224772 0.0005 
2921 1 0.001211 0.00408573 0.022075 0.0005 
2924 1 0.00231341 0.00505436 0.0205 0.0005 
307 1 0.00831374 0.00228397 0.0205 0.0005 
870 1 0.0083887 0.00631936 0.0205001 0.0005 
324 1 0.00837315 0.00431794 0.0219998 0.002 
1195 1 0.00910278 0.00158683 0.0214839 0.0005 
121 1 0.00938371 0.00642804 0.0205 0.0005 
228 1 0.00996354 0.00561299 0.0205 0.0005 
490 1 0.0103401 0.00468652 0.0205 0.0005 
199 1 0.0118802 0.00346525 0.0205 0.0005 
395 1 0.0109285 0.00290484 0.0205 0.0005 
474 1 0.0140915 0.00194085 0.0207499 0.00075 
282 1 0.0106512 0.00140467 0.0205 0.0005 
590 1 0.00994323 0.000499984 0.0205 0.0005 
176 1 0.0137872 0.000500854 0.0205 0.0005 
289 1 0.0112687 0.00051058 0.0205 0.0005 
362 1 0.00894324 0.000500467 0.0205 0.0005 
783 1 0.0112252 0.00422102 0.0205 0.0005 
51 1 0.0133997 0.00322269 0.0205 0.0005 
233 1 0.00984705 0.00232978 0.0207506 0.00075 
217 1 0.0111184 0.00531448 0.0205 0.0005 
549 1 0.0106634 0.00514015 0.0213732 0.0005 
126 1 0.012808 0.00493306 0.0214998 0.0015 
676 1 0.0105537 0.000749965 0.0215617 0.00075 
209 1 0.0140308 0.00616031 0.0204999 0.0005 
730 1 0.00894542 0.0015011 0.0205 0.0005 
764 1 0.0108959 0.00689317 0.0212498 0.00125 
311 1 0.0146216 0.00674275 0.0217495 0.001 
763 1 0.0102721 0.00366 0.0205 0.0005 
66 1 0.0145644 0.00502595 0.0205 0.0005 
61 1 0.0150029 0.0059247 0.0205 0.0005 
108 1 0.0151706 0.00354862 0.0212498 0.00125 
89 1 0.00886735 0.000502216 0.0214971 0.0005 
155 1 0.0121554 0.00190619 0.0212499 0.00125 
178 1 0.0150031 0.000749841 0.0207498 0.00075 
364 1 0.0110326 0.00355245 0.0215642 0.00075 
895 1 0.0116356 0.000499909 0.0221523 0.0005 
598 1 0.013045 0.000500859 0.0218145 0.0005 
581 1 0.0126743 0.00708566 0.0221443 0.00075 
171 1 0.0132264 0.0070843 0.0207498 0.00075 
161 1 0.02325 0.000749855 0.0207499 0.00075 
159 1 0.0228635 0.00341175 0.0204999 0.0005 
204 1 0.0235 0.00539737 0.0205 0.0005 
219 1 0.0215362 0.00099999 0.0209999 0.001 
333 1 0.02325 0.00438263 0.0211857 0.00075 
142 1 0.0232502 0.00224968 0.0207498 0.00075 
200 1 0.0203195 0.00280349 0.0207499 0.00075 
340 1 0.021571 0.00451452 0.0207499 0.00075 
452 1 0.0235001 0.00641616 0.0204999 0.0005 
518 1 0.0197412 0.000750168 0.02075 0.00075 
185 1 0.0165615 0.00562578 0.0212499 0.00125 
31 1 0.0169873 0.00149972 0.0214998 0.0015 
123 1 0.0229164 0.00101477 0.0224472 0.001 
273 1 0.0218711 0.00298193 0.0215392 0.001 
113 1 0.0168946 0.00332789 0.0205 0.0005 
544 1 0.0188496 0.00425631 0.0209998 0.001 
577 1 0.02325 0.00591125 0.0216156 0.00075 
652 1 0.0183026 0.00556388 0.0214904 0.0005 
290 1 0.018846 0.00252328 0.02075 0.00075 
281 1 0.0204414 0.00398215 0.021673 0.00075 
57 1 0.020312 0.00622169 0.0214999 0.0015 
143 1 0.0224585 0.00588398 0.0205 0.0005 
853 1 0.0181654 0.00554811 0.0205 0.0005 
106 1 0.022128 0.00538488 0.0214532 0.0005 
1012 1 0.0181474 0.00677221 0.0217696 0.00075 
109 1 0.0185715 0.0064706 0.0205 0.0005 
256 1 0.00140128 0.00768015 0.0205 0.0005 
75 1 0.00267917 0.00738425 0.02075 0.00075 
887 1 0.0072924 0.00780071 0.0221412 0.0005 
1359 1 0.0039664 0.00804126 0.0205 0.0005 
588 1 0.00490031 0.00768308 0.0205 0.0005 
360 1 0.00652945 0.012552 0.0205 0.0005 
154 1 0.00525455 0.00888354 0.0207499 0.00075 
13 1 0.000500096 0.00836453 0.0205 0.0005 
879 1 0.00606438 0.00796507 0.0204999 0.0005 
137 1 0.00110671 0.00915959 0.0205 0.0005 
44 1 0.00536969 0.0104205 0.02075 0.00075 
1166 1 0.0061757 0.00817913 0.0217263 0.00075 
1234 1 0.00595147 0.00943957 0.0216329 0.0005 
323 1 0.00299316 0.00982421 0.0219998 0.002 
820 1 0.00102292 0.0101679 0.0204999 0.0005 
1067 1 0.0079719 0.0128119 0.0205 0.0005 
713 1 0.00252841 0.0119756 0.0205 0.0005 
881 1 0.000501318 0.011089 0.0205 0.0005 
943 1 0.00418493 0.0117836 0.0205 0.0005 
673 1 0.00539568 0.0120888 0.02075 0.00075 
174 1 0.00116318 0.0123457 0.0209999 0.001 
447 1 0.00632198 0.00948372 0.0204999 0.0005 
737 1 0.00566907 0.0132826 0.0205 0.0005 
646 1 0.00149865 0.0141081 0.0205 0.0005 
508 1 0.000500051 0.0136042 0.0205 0.0005 
872 1 0.00755561 0.0116584 0.02075 0.00075 
439 1 0.00703379 0.0141267 0.0212499 0.00125 
891 1 0.00700381 0.00830695 0.0204998 0.0005 
1190 1 0.00545974 0.00997739 0.0223776 0.0005 
479 1 0.000500936 0.0134542 0.0217633 0.0005 
911 1 0.00499972 0.0112609 0.0215986 0.0005 
296 1 0.0036791 0.0140394 0.0222496 0.00225 
35 1 0.00794311 0.00963687 0.0216609 0.0015 
2621 1 0.00630388 0.0112671 0.0205 0.0005 
1032 1 0.0061072 0.0104238 0.02176 0.0005 
1085 1 0.000749968 0.0113663 0.02239 0.00075 
742 1 0.000512108 0.0102027 0.0216852 0.0005 
274 1 0.00793546 0.00794409 0.0204999 0.0005 
427 1 0.00539341 0.00895327 0.022322 0.0005 
1407 1 0.000782022 0.00773326 0.0220617 0.00075 
401 1 0.00654584 0.0119721 0.0224476 0.00125 
521 1 0.000721143 0.0141319 0.0224659 0.0005 
1070 1 0.00842534 0.00729025 0.0220063 0.00075 
636 1 0.0122121 0.00777575 0.0205 0.0005 
275 1 0.0146872 0.00834927 0.0207499 0.00075 
46 1 0.00913526 0.00769915 0.0207499 0.00075 
556 1 0.0140558 0.00979671 0.02075 0.00075 
287 1 0.0109188 0.010879 0.0205 0.0005 
865 1 0.0135015 0.012457 0.0205 0.0005 
756 1 0.0119549 0.00949092 0.0214999 0.0015 
318 1 0.0137968 0.00828153 0.0219549 0.00075 
686 1 0.00960359 0.0088341 0.0205 0.0005 
10 1 0.0155803 0.00918713 0.0204999 0.0005 
569 1 0.012624 0.0110888 0.0205 0.0005 
252 1 0.00870922 0.0110733 0.0204997 0.0005 
188 1 0.0150413 0.0132581 0.0214998 0.0015 
772 1 0.0125629 0.0121014 0.0205 0.0005 
709 1 0.00993712 0.0101456 0.0207499 0.00075 
1061 1 0.0116418 0.0115697 0.0205 0.0005 
1118 1 0.0098557 0.0101151 0.0219967 0.0005 
59 1 0.0118843 0.0128358 0.0205002 0.0005 
974 1 0.0115239 0.0137772 0.0205 0.0005 
734 1 0.0128976 0.0135249 0.0207501 0.00075 
968 1 0.0124893 0.0116698 0.0216707 0.00075 
62 1 0.00992996 0.0126135 0.0220444 0.002 
1238 1 0.0105638 0.00845843 0.0205 0.0005 
1028 1 0.0138649 0.0112848 0.02075 0.00075 
1653 1 0.01471 0.00952125 0.0217789 0.0005 
80 1 0.01562 0.0105794 0.0210564 0.001 
810 1 0.0096491 0.00822715 0.0220651 0.00075 
1080 1 0.013863 0.011493 0.0222467 0.00075 
192 1 0.0158782 0.00743758 0.0207498 0.00075 
1056 1 0.015936 0.0115821 0.0221263 0.0005 
611 1 0.00861486 0.0140746 0.0205 0.0005 
714 1 0.0161 0.011887 0.0205 0.0005 
1922 1 0.0165284 0.00847895 0.0205 0.0005 
6 1 0.0224704 0.00738236 0.0210059 0.001 
190 1 0.0173739 0.00755338 0.0207495 0.00075 
1846 1 0.0165234 0.00951933 0.0204999 0.0005 
342 1 0.0170702 0.0126346 0.0207494 0.00075 
319 1 0.0211098 0.0077587 0.0204997 0.0005 
293 1 0.018828 0.0111654 0.0217501 0.00175 
735 1 0.020778 0.0100534 0.0215921 0.0005 
308 1 0.0201677 0.008813 0.0209998 0.001 
49 1 0.0171221 0.0103422 0.0205 0.0005 
146 1 0.0193169 0.00764007 0.0205 0.0005 
578 1 0.0230002 0.00931076 0.0210002 0.001 
90 1 0.0185944 0.008151 0.0213842 0.00075 
71 1 0.0215908 0.00863831 0.0205 0.0005 
659 1 0.0176978 0.00917249 0.0207499 0.00075 
967 1 0.0169457 0.0113355 0.0205 0.0005 
130 1 0.021285 0.0121415 0.0205 0.0005 
41 1 0.0216418 0.0103851 0.0207502 0.00075 
231 1 0.0235002 0.0106333 0.0204999 0.0005 
279 1 0.0234997 0.00813981 0.0217934 0.0005 
693 1 0.0212598 0.00799264 0.0216488 0.0005 
725 1 0.02264 0.0115045 0.0207511 0.00075 
697 1 0.0204312 0.0102022 0.0204998 0.0005 
330 1 0.0223942 0.0129839 0.0207498 0.00075 
78 1 0.0227235 0.0141646 0.0204999 0.0005 
800 1 0.0206982 0.0113238 0.0205 0.0005 
538 1 0.0235 0.0124404 0.0205 0.0005 
1236 1 0.01787 0.0134475 0.0222754 0.0005 
812 1 0.0215683 0.0122981 0.0214461 0.0005 
944 1 0.0235002 0.0137109 0.0214793 0.0005 
794 1 0.0171346 0.0128382 0.0219802 0.0005 
592 1 0.0181537 0.0132057 0.0205 0.0005 
910 1 0.0215651 0.00916819 0.0219913 0.00075 
523 1 0.0188094 0.0139607 0.0205 0.0005 
956 1 0.0191344 0.0130108 0.0204999 0.0005 
350 1 0.0205427 0.0140182 0.0215006 0.0015 
639 1 0.0225421 0.0139958 0.0214686 0.0005 
1899 1 0.0166316 0.011668 0.0214103 0.0005 
1138 1 0.0225965 0.0106849 0.0220068 0.00075 
272 1 0.0235002 0.0135095 0.0204999 0.0005 
770 1 0.0235001 0.0114828 0.0216577 0.0005 
1517 1 0.0211796 0.0113675 0.0213754 0.0005 
1498 1 0.0185779 0.0135205 0.0213741 0.0005 
1575 1 0.0220342 0.00803428 0.022285 0.0005 
2494 1 0.0188614 0.0133349 0.0223455 0.0005 
196 1 0.000517062 0.0142955 0.0212224 0.0005 
782 1 0.000500368 0.0149679 0.0219623 0.0005 
70 1 0.000500208 0.0149874 0.0205 0.0005 
888 1 0.00341773 0.016321 0.0205 0.0005 
550 1 0.00291443 0.0174198 0.0205 0.0005 
1 1 0.0072634 0.016049 0.0207499 0.00075 
529 1 0.00125516 0.0163783 0.0212498 0.00125 
269 1 0.0072136 0.0179845 0.0212499 0.00125 
19 1 0.00470533 0.017239 0.0212499 0.00125 
1077 1 0.00621247 0.0167606 0.0205 0.0005 
1004 1 0.00622571 0.0198721 0.0207499 0.00075 
688 1 0.000500402 0.0195752 0.0205 0.0005 
896 1 0.00745022 0.0198486 0.0205001 0.0005 
1660 1 0.00575198 0.0186429 0.0205 0.0005 
972 1 0.00614535 0.0159444 0.0217506 0.00075 
223 1 0.00379914 0.0200587 0.0217495 0.00175 
678 1 0.00135826 0.0211899 0.021 0.001 
315 1 0.00279954 0.0175313 0.0217841 0.00075 
576 1 0.000861299 0.0183036 0.02075 0.00075 
1094 1 0.00617775 0.0194207 0.0221795 0.00075 
1884 1 0.000504121 0.0193721 0.0214859 0.0005 
430 1 0.00209883 0.0180167 0.0205 0.0005 
1829 1 0.00611107 0.0171027 0.0222839 0.0005 
1388 1 0.000749916 0.0203005 0.0223788 0.00075 
600 1 0.00822215 0.0212284 0.0212506 0.00125 
110 1 0.0137743 0.0145359 0.0205 0.0005 
2226 1 0.0134152 0.0144364 0.0214313 0.0005 
43 1 0.0157048 0.0148606 0.0205 0.0005 
877 1 0.00956554 0.0198659 0.0205 0.0005 
1859 1 0.00859965 0.0193664 0.0207155 0.0005 
1570 1 0.00909352 0.0182688 0.0205044 0.0005 
695 1 0.00859404 0.0152244 0.0219188 0.00075 
54 1 0.00920699 0.0170916 0.0217897 0.001 
786 1 0.0098332 0.0152121 0.0221372 0.0005 
221 1 0.0118581 0.0155339 0.022096 0.0015 
118 1 0.0145646 0.0160169 0.0212499 0.00125 
717 1 0.0129284 0.0185892 0.0205 0.0005 
1232 1 0.0101869 0.0148998 0.0205 0.0005 
934 1 0.0140097 0.0191784 0.02075 0.00075 
1310 1 0.0138836 0.0174652 0.0205 0.0005 
1212 1 0.0151416 0.0185343 0.0205 0.0005 
624 1 0.0130597 0.0167723 0.0205 0.0005 
1035 1 0.0121346 0.0173889 0.0205 0.0005 
1592 1 0.0128993 0.0197604 0.0205 0.0005 
1697 1 0.00978126 0.0209309 0.0205 0.0005 
2033 1 0.0134264 0.0201147 0.0213379 0.0005 
1264 1 0.0115409 0.0210469 0.0205 0.0005 
1164 1 0.0127652 0.0209976 0.02075 0.00075 
982 1 0.0150014 0.0203263 0.0205 0.0005 
1448 1 0.0129978 0.017681 0.0209127 0.0005 
2386 1 0.0142428 0.0179606 0.0215941 0.00075 
2420 1 0.0139003 0.0204519 0.0205 0.0005 
2431 1 0.0149198 0.0175592 0.0205 0.0005 
2287 1 0.0151416 0.0191599 0.0212801 0.0005 
2500 1 0.0153675 0.0199815 0.0218035 0.0005 
2378 1 0.0145025 0.020266 0.0213645 0.0005 
2447 1 0.0141713 0.0195392 0.022326 0.00075 
2086 1 0.0135956 0.017091 0.0222348 0.0005 
1311 1 0.0156409 0.0195575 0.0205 0.0005 
2645 1 0.0155606 0.0175023 0.0214143 0.0005 
1376 1 0.00941146 0.018591 0.0214278 0.0005 
2392 1 0.0127225 0.0173135 0.021801 0.0005 
1757 1 0.0151411 0.0209541 0.0218562 0.0005 
2594 1 0.0139671 0.0211076 0.0214362 0.0005 
2618 1 0.0150751 0.0172996 0.0223254 0.0005 
2897 1 0.0103189 0.0181294 0.0210451 0.0005 
1338 1 0.0159142 0.0176995 0.0205 0.0005 
2511 1 0.0161565 0.0167289 0.0205 0.0005 
2117 1 0.0162427 0.0152952 0.0214308 0.0005 
189 1 0.0163199 0.0156521 0.0204999 0.0005 
2460 1 0.0161534 0.0186707 0.0205 0.0005 
139 1 0.0173285 0.0143542 0.0209999 0.001 
1193 1 0.0186901 0.0148058 0.0214384 0.0005 
345 1 0.0190673 0.0149268 0.0205 0.0005 
741 1 0.017843 0.0156061 0.0216464 0.0005 
450 1 0.0182157 0.0154557 0.0205 0.0005 
947 1 0.0178161 0.0174619 0.0205 0.0005 
591 1 0.0222758 0.0153051 0.02075 0.00075 
465 1 0.0186516 0.0169065 0.0205 0.0005 
719 1 0.0189762 0.0160186 0.0213178 0.00075 
628 1 0.0234999 0.0165956 0.0205 0.0005 
42 1 0.0223162 0.0169102 0.0207502 0.00075 
747 1 0.0211027 0.0156569 0.0205 0.0005 
813 1 0.0201246 0.0165429 0.0205 0.0005 
787 1 0.0187118 0.0179066 0.0205 0.0005 
492 1 0.0195496 0.017361 0.0205 0.0005 
238 1 0.0235 0.0176077 0.0205 0.0005 
1216 1 0.0198722 0.0171432 0.0217574 0.00075 
1230 1 0.0173548 0.0163274 0.0207498 0.00075 
566 1 0.0207484 0.017827 0.02075 0.00075 
1333 1 0.021118 0.0166568 0.0205 0.0005 
1091 1 0.0196063 0.0183593 0.0205 0.0005 
1398 1 0.0210456 0.0199641 0.0205 0.0005 
1189 1 0.0235 0.0146026 0.0209527 0.0005 
1427 1 0.0198189 0.015591 0.0204998 0.0005 
898 1 0.0188789 0.0178534 0.0214858 0.0005 
1452 1 0.019892 0.0195501 0.0207499 0.00075 
1488 1 0.0183792 0.0190852 0.02075 0.00075 
1124 1 0.0235 0.0154942 0.0205 0.0005 
1020 1 0.0225001 0.0190236 0.0214999 0.0015 
1401 1 0.0214159 0.0163777 0.0221538 0.001 
1298 1 0.0202283 0.0159854 0.0213239 0.0005 
1170 1 0.0232335 0.016079 0.0216068 0.00075 
1831 1 0.0177205 0.0181374 0.0212311 0.0005 
957 1 0.0234749 0.0206738 0.0204999 0.0005 
1320 1 0.0188852 0.0207016 0.0207498 0.00075 
1598 1 0.0199419 0.0205753 0.0214629 0.0005 
1437 1 0.0235001 0.0207556 0.021496 0.0005 
1184 1 0.0234999 0.0172905 0.0214483 0.0005 
1692 1 0.0193096 0.0187553 0.021519 0.0005 
1828 1 0.0182602 0.0170692 0.0214376 0.0005 
1202 1 0.0207133 0.0199144 0.0216189 0.0005 
1460 1 0.0208416 0.020894 0.0217734 0.0005 
1984 1 0.0188764 0.0198171 0.0216328 0.0005 
1738 1 0.0171407 0.0188407 0.0205 0.0005 
1648 1 0.0169703 0.0204138 0.0212499 0.00125 
2467 1 0.016901 0.017865 0.0204999 0.0005 
1963 1 0.0184339 0.0205699 0.0222628 0.0005 
1434 1 0.0232501 0.0147071 0.0222134 0.00075 
1796 1 0.0197667 0.0195395 0.0219935 0.0005 
1105 1 0.0203374 0.0207058 0.0205 0.0005 
1865 1 0.0167624 0.0184153 0.0213232 0.0005 
1767 1 0.0209597 0.0178414 0.0219825 0.0005 
1929 1 0.0202617 0.0184969 0.0216865 0.0005 
2072 1 0.0234999 0.0175519 0.0224135 0.0005 
2099 1 0.0198181 0.0159251 0.0222369 0.0005 
838 1 0.0164928 0.0166111 0.022246 0.001 
2396 1 0.0172008 0.0152103 0.0223029 0.0005 
700 1 0.00580787 0.0213125 0.0207498 0.00075 
1293 1 0.00270414 0.0216234 0.0204999 0.0005 
1416 1 0.00363407 0.0219904 0.0205001 0.0005 
1578 1 0.00498991 0.0219758 0.0214224 0.0005 
482 1 0.000499898 0.0223136 0.0204999 0.0005 
12 1 0.00206728 0.0227772 0.02075 0.00075 
952 1 0.00615424 0.0246006 0.0205 0.0005 
1439 1 0.007532 0.0233997 0.02075 0.00075 
831 1 0.0050446 0.0234136 0.0209998 0.001 
534 1 0.00075804 0.0235102 0.0207523 0.00075 
1423 1 0.00172268 0.026876 0.0218659 0.0005 
1406 1 0.00058666 0.0260938 0.0205 0.0005 
483 1 0.000500093 0.0271071 0.0205 0.0005 
1483 1 0.00703827 0.0222756 0.0204998 0.0005 
1512 1 0.00393094 0.0249917 0.0205 0.0005 
752 1 0.00582236 0.0261034 0.0205019 0.0005 
1805 1 0.00335835 0.023809 0.0207499 0.00075 
1576 1 0.000499846 0.0247068 0.0205 0.0005 
1373 1 0.00713727 0.0256963 0.0207501 0.00075 
1860 1 0.00462502 0.0218581 0.0204995 0.0005 
1625 1 0.000505939 0.022503 0.0214817 0.0005 
1455 1 0.00194511 0.0248102 0.021 0.001 
1942 1 0.00639205 0.0224454 0.0215559 0.00075 
1926 1 0.000506469 0.0239126 0.0219185 0.0005 
1520 1 0.007076 0.0272866 0.0209596 0.0005 
1143 1 0.00373142 0.0277365 0.0207501 0.00075 
2021 1 0.00778046 0.0267457 0.0205 0.0005 
980 1 0.0061881 0.0272664 0.0205 0.0005 
1825 1 0.000500146 0.0250994 0.0214223 0.0005 
2481 1 0.0074318 0.0281596 0.0205 0.0005 
2583 1 0.00495467 0.0250554 0.0204991 0.0005 
1893 1 0.00117248 0.0245977 0.0222707 0.0005 
2706 1 0.000500769 0.0253425 0.0223955 0.0005 
348 1 0.0028827 0.0268535 0.0205 0.0005 
775 1 0.00569084 0.0252847 0.0220689 0.00125 
1662 1 0.00364289 0.0225612 0.0216124 0.00075 
2168 1 0.00723185 0.026552 0.0222058 0.00075 
1702 1 0.000504085 0.028079 0.0219539 0.0005 
2244 1 0.00213844 0.0273294 0.0209686 0.0005 
2852 1 0.00502697 0.0267051 0.0209785 0.0005 
2884 1 0.00321489 0.026272 0.0212425 0.0005 
2920 1 0.00584092 0.0272672 0.0221278 0.0005 
1474 1 0.00489605 0.0219063 0.0224148 0.0005 
1449 1 0.002537 0.0281243 0.0205 0.0005 
1285 1 0.000750332 0.0283075 0.02075 0.00075 
2833 1 0.00423016 0.0271471 0.0223125 0.0005 
2427 1 0.00526641 0.0282995 0.0206863 0.0005 
1144 1 0.00981882 0.0217791 0.0217101 0.0005 
1577 1 0.0139683 0.0214589 0.0205 0.0005 
1650 1 0.0081686 0.0229754 0.0217405 0.0005 
946 1 0.00827257 0.0247819 0.0221303 0.00125 
904 1 0.00848159 0.0241731 0.0205 0.0005 
1081 1 0.00856794 0.0261294 0.0205 0.0005 
1343 1 0.0106152 0.0218586 0.02075 0.00075 
1394 1 0.00946186 0.023152 0.0209999 0.001 
1698 1 0.0095801 0.0254017 0.0207499 0.00075 
1342 1 0.010784 0.0247256 0.0215938 0.00075 
978 1 0.0103576 0.0263479 0.0204999 0.0005 
1208 1 0.0102289 0.0243627 0.0205 0.0005 
1350 1 0.0133652 0.0236669 0.0204999 0.0005 
919 1 0.00929549 0.0278878 0.02175 0.00175 
780 1 0.0128194 0.0255787 0.0205 0.0005 
353 1 0.0149707 0.0237811 0.0205 0.0005 
1294 1 0.0127432 0.0228839 0.0205 0.0005 
1180 1 0.0120284 0.0221457 0.0205 0.0005 
1462 1 0.011395 0.0258363 0.0214417 0.0005 
1467 1 0.0122202 0.023942 0.0205 0.0005 
1552 1 0.0131476 0.0222427 0.0214939 0.00075 
1602 1 0.0113418 0.0261715 0.0204999 0.0005 
1621 1 0.0124825 0.0251848 0.0216375 0.00075 
861 1 0.014203 0.0247354 0.02075 0.00075 
1643 1 0.0118553 0.0253135 0.0205 0.0005 
1539 1 0.0129817 0.0245904 0.0205 0.0005 
1330 1 0.0138881 0.023686 0.021352 0.0005 
1192 1 0.0147589 0.0260397 0.0204999 0.0005 
1614 1 0.0111924 0.023243 0.0207502 0.00075 
1693 1 0.0156043 0.0227003 0.0205 0.0005 
1618 1 0.0113356 0.0244593 0.0205 0.0005 
1221 1 0.0143687 0.022696 0.02075 0.00075 
1915 1 0.0137709 0.0258858 0.0205 0.0005 
1869 1 0.0108026 0.0253295 0.0204998 0.0005 
2193 1 0.0110029 0.0271196 0.0205 0.0005 
2263 1 0.0139373 0.0256983 0.0215015 0.0005 
2270 1 0.0125873 0.0271451 0.0212501 0.00125 
1753 1 0.0156201 0.0237287 0.0214359 0.0005 
862 1 0.0143334 0.0273159 0.0205 0.0005 
1775 1 0.0143721 0.0219622 0.0217619 0.0005 
2004 1 0.0142482 0.0265956 0.0211884 0.0005 
1958 1 0.0142949 0.0276779 0.0214327 0.0005 
2243 1 0.0156342 0.0268962 0.02075 0.00075 
1017 1 0.0152942 0.0215156 0.02075 0.00075 
2348 1 0.0149016 0.02304 0.021827 0.0005 
1955 1 0.0150543 0.0262428 0.0216636 0.0005 
144 1 0.0158829 0.0251818 0.0209999 0.001 
1563 1 0.0159599 0.0236349 0.0205 0.0005 
2603 1 0.0125678 0.0234483 0.0213066 0.0005 
2121 1 0.0103598 0.0259111 0.0215877 0.0005 
2261 1 0.0153353 0.0278003 0.0215613 0.0005 
2026 1 0.0111188 0.0265999 0.0220325 0.0005 
2662 1 0.0139369 0.0230093 0.0220886 0.0005 
2201 1 0.0118617 0.0240925 0.0216004 0.0005 
2403 1 0.0116218 0.0283239 0.0223808 0.0005 
1935 1 0.0113464 0.0281417 0.0205 0.0005 
2010 1 0.0131313 0.0240027 0.0219246 0.0005 
1931 1 0.0112985 0.0256847 0.0224309 0.0005 
2419 1 0.0151501 0.0270565 0.0222368 0.0005 
1768 1 0.0159066 0.0280902 0.0205 0.0005 
2097 1 0.00993592 0.0243206 0.0224178 0.0005 
1794 1 0.0162832 0.0224591 0.0218878 0.001 
1219 1 0.0220125 0.0214239 0.021 0.001 
152 1 0.0209278 0.0235606 0.0204998 0.0005 
1292 1 0.0171338 0.0239839 0.02075 0.00075 
512 1 0.0190605 0.0269123 0.0204999 0.0005 
1288 1 0.0164741 0.0219163 0.0205 0.0005 
1048 1 0.0180213 0.0220897 0.02075 0.00075 
1415 1 0.0215085 0.022745 0.0204999 0.0005 
1087 1 0.0234984 0.0253408 0.0205 0.0005 
1176 1 0.0183548 0.0259116 0.0207499 0.00075 
1269 1 0.0232501 0.0226353 0.02075 0.00075 
1507 1 0.0235 0.024821 0.0217646 0.0005 
1574 1 0.0234929 0.0264632 0.0205 0.0005 
1472 1 0.0232503 0.0241352 0.0207498 0.00075 
1590 1 0.0223101 0.0249194 0.0204996 0.0005 
1634 1 0.0186058 0.0236964 0.0207498 0.00075 
908 1 0.0222339 0.0234447 0.0205 0.0005 
1646 1 0.0170006 0.0227664 0.0205 0.0005 
1927 1 0.0168545 0.0262236 0.0205 0.0005 
1897 1 0.0179139 0.0230921 0.0219353 0.00075 
1370 1 0.0231168 0.0276556 0.02075 0.00075 
1243 1 0.0201105 0.024915 0.0212496 0.00125 
1978 1 0.0173377 0.0252294 0.0205 0.0005 
1881 1 0.0169383 0.0245668 0.0218703 0.0005 
1514 1 0.0199592 0.0223122 0.0212515 0.00125 
1925 1 0.0216363 0.0242224 0.0207437 0.0005 
1527 1 0.0181602 0.024768 0.0217004 0.00075 
1106 1 0.0175571 0.0277067 0.0212499 0.00125 
1323 1 0.0191251 0.0279101 0.0205 0.0005 
1090 1 0.022331 0.0261232 0.021769 0.00125 
1837 1 0.0160715 0.0274337 0.0221335 0.0005 
1015 1 0.0217908 0.0278491 0.0205 0.0005 
1974 1 0.0235 0.0281442 0.0218348 0.0005 
1267 1 0.0204587 0.0271234 0.0209998 0.001 
2065 1 0.0189321 0.0238171 0.0219504 0.0005 
1910 1 0.0192123 0.0274621 0.0217628 0.0005 
2198 1 0.0234999 0.0272879 0.0223515 0.0005 
2162 1 0.0212382 0.0216728 0.0222603 0.0005 
2008 1 0.0187773 0.0283231 0.0223426 0.0005 
1606 1 0.0187392 0.026228 0.022473 0.001 
1480 1 0.00631725 0.0290643 0.02075 0.00075 
1103 1 0.00513221 0.0293736 0.0205 0.0005 
138 1 0.00754201 0.0291536 0.0205 0.0005 
162 1 0.000618844 0.0323636 0.0205 0.0005 
259 1 0.00360753 0.031745 0.0204999 0.0005 
522 1 0.00158401 0.0336056 0.02075 0.00075 
337 1 0.00290064 0.0303754 0.02075 0.00075 
638 1 0.00472444 0.0331506 0.0207499 0.00075 
506 1 0.000638301 0.0346458 0.021372 0.0005 
1084 1 0.00140145 0.0304435 0.0207504 0.00075 
1355 1 0.00280186 0.0337378 0.0205003 0.0005 
1451 1 0.00429793 0.0288223 0.0205 0.0005 
412 1 0.00221878 0.0319954 0.0210083 0.001 
1607 1 0.00156803 0.0292199 0.0205 0.0005 
1290 1 0.000500399 0.0295189 0.0205 0.0005 
1761 1 0.00632815 0.0344961 0.0205382 0.0005 
1760 1 0.00345468 0.0329796 0.0205 0.0005 
1611 1 0.00507017 0.0344174 0.0205714 0.0005 
2278 1 0.00266024 0.0291168 0.0205 0.0005 
2306 1 0.00569374 0.0319741 0.0207498 0.00075 
2343 1 0.00586601 0.0302032 0.0205002 0.0005 
2387 1 0.00696013 0.0327778 0.0207499 0.00075 
2407 1 0.0042349 0.0308778 0.0205 0.0005 
2421 1 0.00586009 0.0336128 0.0205057 0.0005 
672 1 0.0072229 0.0353878 0.02075 0.00075 
2537 1 0.0042687 0.0298782 0.0205 0.0005 
1872 1 0.00733188 0.0307979 0.0212496 0.00125 
1792 1 0.00440494 0.0316849 0.0214605 0.00075 
2484 1 0.00569779 0.0311991 0.0217305 0.0005 
2573 1 0.00520837 0.0300626 0.0215545 0.00075 
1993 1 0.00171064 0.0289984 0.0217221 0.00075 
2455 1 0.00787003 0.0333365 0.0216557 0.0005 
2622 1 0.00640124 0.0322568 0.0217445 0.0005 
1291 1 0.000755384 0.033506 0.0219964 0.00075 
2548 1 0.00323165 0.0311767 0.0217602 0.0005 
2570 1 0.0053816 0.032705 0.0217165 0.0005 
897 1 0.00050012 0.0341763 0.0205 0.0005 
1168 1 0.00361662 0.0329394 0.0217388 0.00075 
2449 1 0.00718449 0.0286383 0.021543 0.0005 
1136 1 0.000763212 0.0319951 0.0220205 0.00075 
2381 1 0.00411837 0.0291161 0.0214388 0.0005 
2530 1 0.00393535 0.030131 0.0214092 0.0005 
2154 1 0.0007506 0.0302365 0.0220881 0.00075 
535 1 0.000824964 0.0351221 0.0205 0.0005 
2604 1 0.00618286 0.0342669 0.0222695 0.00125 
2371 1 0.00196489 0.0303553 0.022438 0.0005 
2660 1 0.00500059 0.0312013 0.0224473 0.0005 
2423 1 0.0063156 0.0295747 0.0224646 0.00075 
2493 1 0.00827927 0.0350259 0.0214013 0.0005 
2337 1 0.00800831 0.0337572 0.0205433 0.0005 
2772 1 0.00841279 0.0298878 0.022282 0.0005 
2393 1 0.0114292 0.0285242 0.0214202 0.0005 
2456 1 0.00814523 0.032375 0.0219729 0.0005 
1987 1 0.0147679 0.0285964 0.0217762 0.0005 
1870 1 0.01405 0.028702 0.0207585 0.00075 
2301 1 0.0127245 0.0289857 0.0220434 0.00075 
505 1 0.0084479 0.0295845 0.0205 0.0005 
886 1 0.00891204 0.0304832 0.0205 0.0005 
1249 1 0.0131869 0.0330895 0.02075 0.00075 
1154 1 0.0110895 0.0324999 0.0204999 0.0005 
609 1 0.012088 0.0325495 0.0204999 0.0005 
1134 1 0.00841284 0.0324049 0.02075 0.00075 
1340 1 0.0114462 0.0334407 0.0205 0.0005 
1678 1 0.012303 0.0340906 0.0205 0.0005 
1703 1 0.0102832 0.0315464 0.0205008 0.0005 
1095 1 0.0132553 0.0343957 0.0205 0.0005 
1815 1 0.00927765 0.0315219 0.0205 0.0005 
1348 1 0.0127813 0.0303175 0.0205 0.0005 
2043 1 0.0107322 0.0290862 0.0205 0.0005 
1867 1 0.00910444 0.0335096 0.0217496 0.00075 
1793 1 0.0140491 0.0298669 0.0217935 0.00075 
2242 1 0.0116543 0.0312052 0.0210043 0.001 
2245 1 0.0100205 0.0306321 0.021314 0.00075 
2266 1 0.012827 0.0287078 0.0205 0.0005 
1954 1 0.0107948 0.0300842 0.0205 0.0005 
1762 1 0.00898855 0.0313296 0.0214378 0.0005 
640 1 0.00988257 0.0327033 0.0207522 0.00075 
2323 1 0.0127109 0.0352346 0.0205 0.0005 
2362 1 0.0138964 0.029958 0.0205 0.0005 
2347 1 0.0118051 0.0349091 0.0207861 0.0005 
1361 1 0.0150461 0.0303804 0.02075 0.00075 
2202 1 0.0136629 0.0314233 0.021 0.001 
2451 1 0.0118861 0.0294868 0.0207661 0.00075 
1083 1 0.0148146 0.0341374 0.0212518 0.00125 
835 1 0.00850146 0.0346432 0.0205 0.0005 
2305 1 0.0150195 0.0313745 0.0216392 0.0005 
2225 1 0.00963809 0.0297599 0.0205 0.0005 
2408 1 0.0131018 0.0347333 0.0214308 0.0005 
2304 1 0.0104077 0.0344063 0.021 0.001 
2574 1 0.0131393 0.0295252 0.0209945 0.0005 
698 1 0.0151921 0.0322367 0.02075 0.00075 
2317 1 0.0111939 0.0297913 0.0223442 0.001 
2404 1 0.0123091 0.0338227 0.0217552 0.00075 
2390 1 0.0091656 0.0322402 0.0218115 0.0005 
2376 1 0.0129989 0.035075 0.0224017 0.0005 
2252 1 0.0123887 0.0324328 0.0214589 0.0005 
2577 1 0.0114278 0.0327128 0.0214221 0.0005 
2505 1 0.0126192 0.0301815 0.0215445 0.0005 
2439 1 0.0154554 0.0326435 0.0219022 0.0005 
2247 1 0.0115871 0.0349285 0.0217743 0.0005 
1786 1 0.0152629 0.0288586 0.0205 0.0005 
2469 1 0.00929203 0.0352774 0.0205 0.0005 
2412 1 0.0126855 0.0310251 0.0220787 0.0005 
2345 1 0.0105245 0.0320519 0.022422 0.001 
1854 1 0.0159885 0.0288582 0.0217116 0.00075 
2297 1 0.0135013 0.0327634 0.0224758 0.001 
2379 1 0.0120064 0.0318463 0.0223139 0.0005 
2612 1 0.00842282 0.0344647 0.0222265 0.0005 
2443 1 0.00938691 0.0301124 0.0222578 0.0005 
1409 1 0.0162482 0.02903 0.0205 0.0005 
1113 1 0.0173165 0.0296291 0.0207499 0.00075 
1044 1 0.0196242 0.0294104 0.0212499 0.00125 
557 1 0.0194054 0.0338756 0.0212508 0.00125 
304 1 0.0225059 0.0311373 0.0204998 0.0005 
1142 1 0.0223104 0.0345391 0.0205 0.0005 
1335 1 0.0171376 0.0329823 0.0204999 0.0005 
1414 1 0.023498 0.0352089 0.0205 0.0005 
1016 1 0.0231808 0.0322157 0.02075 0.00075 
1531 1 0.0177276 0.0338199 0.0205 0.0005 
1329 1 0.0234998 0.0288189 0.0205 0.0005 
1318 1 0.0181565 0.0328948 0.0205 0.0005 
1305 1 0.0180341 0.0309462 0.0207499 0.00075 
1258 1 0.0233721 0.0298451 0.0205 0.0005 
1695 1 0.0176485 0.0352586 0.0209999 0.001 
1224 1 0.0164771 0.0314623 0.02075 0.00075 
878 1 0.023248 0.0337152 0.02075 0.00075 
1213 1 0.0191425 0.0319575 0.0207498 0.00075 
1447 1 0.0161698 0.0303468 0.021743 0.00075 
1603 1 0.0162644 0.0302559 0.0204999 0.0005 
1403 1 0.0173946 0.0305955 0.021765 0.0005 
1445 1 0.0235002 0.0310326 0.0205 0.0005 
1362 1 0.0232499 0.0304728 0.0215893 0.00075 
1442 1 0.0179582 0.0293259 0.0217788 0.0005 
1626 1 0.0175418 0.0320677 0.0205 0.0005 
1534 1 0.0221087 0.0299789 0.0207499 0.00075 
1579 1 0.0213288 0.0336553 0.0207497 0.00075 
1468 1 0.0177617 0.0322651 0.0222285 0.00125 
1227 1 0.0167795 0.0337892 0.0213847 0.00075 
1812 1 0.0234996 0.0292581 0.0213983 0.0005 
2044 1 0.0161204 0.0330357 0.0205 0.0005 
959 1 0.0190543 0.0354167 0.0204999 0.0005 
1699 1 0.0234994 0.0329977 0.0217447 0.0005 
2478 1 0.0162037 0.0350383 0.0205 0.0005 
2311 1 0.0189893 0.0310125 0.0215533 0.0005 
809 1 0.0211051 0.0316874 0.0218167 0.0015 
1420 1 0.0218058 0.0285434 0.0221089 0.00125 
2382 1 0.0182822 0.0302686 0.0221191 0.0005 
2235 1 0.0193032 0.0352062 0.0223828 0.0005 
1529 1 0.00573368 0.0355755 0.0207499 0.00075 
1073 1 0.00757413 0.0373973 0.0207514 0.00075 
249 1 0.00326872 0.0356842 0.0219996 0.002 
844 1 0.00506601 0.0366076 0.0205 0.0005 
366 1 0.00249763 0.037536 0.0205 0.0005 
680 1 0.00455367 0.0377836 0.02075 0.00075 
733 1 0.00244942 0.0412257 0.0205005 0.0005 
1108 1 0.000749942 0.0399964 0.0207499 0.00075 
316 1 0.000500188 0.0367792 0.0205009 0.0005 
1276 1 0.00254762 0.0398126 0.0210002 0.001 
91 1 0.005973 0.0406467 0.0207499 0.00075 
2422 1 0.000546685 0.0414639 0.0205 0.0005 
2458 1 0.00459351 0.0391646 0.0205 0.0005 
1177 1 0.00402226 0.0414919 0.0212604 0.00125 
2542 1 0.00659987 0.038839 0.02075 0.00075 
457 1 0.00119712 0.0383231 0.021 0.001 
451 1 0.00159458 0.0421133 0.02075 0.00075 
2629 1 0.00690855 0.040113 0.0214249 0.0005 
2527 1 0.00722656 0.0399048 0.0205 0.0005 
2634 1 0.00655883 0.0365783 0.0205 0.0005 
2713 1 0.00760433 0.0382874 0.0216341 0.0005 
2553 1 0.00153087 0.0409118 0.0210885 0.0005 
1679 1 0.00642826 0.0420803 0.0207498 0.00075 
1568 1 0.00340381 0.0386592 0.0205024 0.0005 
2694 1 0.00184176 0.0414741 0.0222027 0.0005 
1309 1 0.00559373 0.0421394 0.021679 0.0005 
2689 1 0.00720103 0.039191 0.0219674 0.0005 
2152 1 0.00049998 0.0356333 0.0212955 0.0005 
2534 1 0.00128702 0.0396841 0.0218751 0.0005 
2692 1 0.00610737 0.0374734 0.0206391 0.0005 
2551 1 0.00608458 0.0366064 0.02138 0.0005 
2359 1 0.00720564 0.0413246 0.0223226 0.0005 
2554 1 0.00599286 0.0410501 0.0221945 0.00075 
1281 1 0.000751467 0.0367891 0.0217268 0.00075 
2018 1 0.00711464 0.0421761 0.0217899 0.0005 
1000 1 0.00524769 0.0390093 0.0222147 0.00125 
2856 1 0.000931834 0.0408529 0.021887 0.0005 