ITEM: TIMESTEP
410000
ITEM: NUMBER OF ATOMS
3176
ITEM: BOX BOUNDS mm mm mm
-2.4e-06 0.0240024
-7.8e-06 0.0780078
-3e-06 0.030003
ITEM: ATOMS id type x y z radius 
291 1 0.00361191 0.00205532 0.0214999 0.0015 
368 1 0.000503304 0.00163642 0.0205 0.0005 
784 1 0.00584715 0.00401335 0.0207498 0.00075 
32 1 0.00562186 0.000653154 0.0205 0.0005 
241 1 0.00516339 0.00282538 0.0205 0.0005 
815 1 0.00274352 0.000512985 0.0205 0.0005 
448 1 0.00448524 0.00356075 0.0205 0.0005 
300 1 0.000504109 0.000499961 0.0205 0.0005 
442 1 0.00120652 0.00286625 0.0209999 0.001 
816 1 0.00639922 0.00526985 0.0205 0.0005 
710 1 0.00462798 0.00050135 0.0205 0.0005 
527 1 0.000501516 0.00512291 0.0205 0.0005 
100 1 0.0056215 0.00301556 0.0216663 0.0005 
153 1 0.00533058 0.00180719 0.0205 0.0005 
722 1 0.00187701 0.00612718 0.0204998 0.0005 
864 1 0.00624991 0.00136172 0.0208418 0.0005 
503 1 0.000505794 0.00410533 0.0205 0.0005 
561 1 0.00636835 0.00260705 0.0207509 0.00075 
501 1 0.00653767 0.000608718 0.0214894 0.0005 
64 1 0.0067493 0.00695779 0.0209997 0.001 
954 1 0.00663431 0.000500993 0.0205 0.0005 
587 1 0.000499997 0.00104717 0.0213369 0.0005 
370 1 0.00755812 0.00169384 0.0207499 0.00075 
28 1 0.00167213 0.00119668 0.02075 0.00075 
220 1 0.00782568 0.000749926 0.0218844 0.00075 
2736 1 0.00207471 0.00399143 0.0205 0.0005 
998 1 0.000749979 0.00649355 0.0208966 0.00075 
842 1 0.00665894 0.00639513 0.0223869 0.0005 
2924 1 0.00145221 0.00479527 0.0204999 0.0005 
390 1 0.00234545 0.00366292 0.0216346 0.0005 
151 1 0.00139512 0.000751306 0.0221577 0.00075 
486 1 0.00397485 0.00581443 0.0222495 0.00225 
2921 1 0.000501285 0.00176487 0.0220369 0.0005 
1816 1 0.000499973 0.00611392 0.022061 0.0005 
2929 1 0.000755788 0.00428191 0.0219534 0.00075 
463 1 0.00580759 0.00370863 0.0224129 0.0005 
307 1 0.0084652 0.0025167 0.0204999 0.0005 
870 1 0.00816986 0.00670122 0.0205 0.0005 
324 1 0.0082481 0.00450502 0.0219997 0.002 
1195 1 0.00864607 0.00199272 0.0213322 0.0005 
121 1 0.00912464 0.00640372 0.0205 0.0005 
228 1 0.0098488 0.00570362 0.0204997 0.0005 
490 1 0.0102317 0.00477988 0.0205 0.0005 
199 1 0.0118037 0.0036339 0.0204999 0.0005 
395 1 0.010816 0.00300637 0.0205 0.0005 
474 1 0.0140276 0.001924 0.0207498 0.00075 
282 1 0.01057 0.00167328 0.0204999 0.0005 
590 1 0.00966438 0.000500035 0.0205 0.0005 
176 1 0.0137508 0.000500279 0.0205 0.0005 
289 1 0.0116855 0.000500668 0.0205 0.0005 
362 1 0.00832692 0.00051801 0.0205 0.0005 
783 1 0.0111542 0.00439417 0.0205 0.0005 
51 1 0.0133701 0.00305415 0.0205 0.0005 
233 1 0.00968989 0.00252481 0.0207499 0.00075 
217 1 0.0110985 0.0053926 0.0205 0.0005 
549 1 0.0105733 0.00521667 0.0213325 0.0005 
126 1 0.012797 0.0050529 0.0214997 0.0015 
676 1 0.0105543 0.000749917 0.021342 0.00075 
209 1 0.0140483 0.00625094 0.0205 0.0005 
730 1 0.0091061 0.00134115 0.0205 0.0005 
764 1 0.0108219 0.00694953 0.0212496 0.00125 
311 1 0.0146162 0.00683848 0.021759 0.001 
763 1 0.0101238 0.00376664 0.0205 0.0005 
66 1 0.0145299 0.00501413 0.0205 0.0005 
61 1 0.0149871 0.00590347 0.0205 0.0005 
108 1 0.0150971 0.00353818 0.0212499 0.00125 
89 1 0.00899556 0.000501434 0.0212434 0.0005 
155 1 0.0120976 0.00208044 0.0212499 0.00125 
178 1 0.014975 0.000749854 0.0207497 0.00075 
364 1 0.0108508 0.00373298 0.0215165 0.00075 
895 1 0.0116629 0.000499901 0.0218624 0.0005 
598 1 0.0127019 0.000500048 0.020503 0.0005 
161 1 0.02325 0.000749863 0.0207499 0.00075 
159 1 0.0229289 0.0034315 0.0204999 0.0005 
204 1 0.0235 0.00561146 0.0204999 0.0005 
219 1 0.0215361 0.000999991 0.0209999 0.001 
333 1 0.0232489 0.00451248 0.0210397 0.00075 
142 1 0.0232502 0.0022497 0.0207499 0.00075 
200 1 0.0202115 0.00307014 0.0207499 0.00075 
340 1 0.0215958 0.00461346 0.02075 0.00075 
452 1 0.0235002 0.00672235 0.0204998 0.0005 
518 1 0.0197529 0.000749854 0.0207497 0.00075 
185 1 0.0165362 0.00558226 0.0212498 0.00125 
31 1 0.016959 0.0014999 0.0214999 0.0015 
123 1 0.0229227 0.00106581 0.0224396 0.001 
273 1 0.0218252 0.00300921 0.0214236 0.001 
113 1 0.0170379 0.00337231 0.0205 0.0005 
544 1 0.0189621 0.0042695 0.0209998 0.001 
577 1 0.0232501 0.00616719 0.0215911 0.00075 
652 1 0.0182803 0.00551697 0.0214957 0.0005 
290 1 0.0188104 0.00253504 0.0207499 0.00075 
281 1 0.0205007 0.00408849 0.0218349 0.00075 
57 1 0.0203174 0.00630976 0.0214997 0.0015 
143 1 0.0222893 0.00619513 0.0205 0.0005 
853 1 0.0182449 0.00560257 0.0205 0.0005 
106 1 0.0221906 0.00557673 0.0212798 0.0005 
1012 1 0.0181232 0.0067265 0.02177 0.00075 
109 1 0.0185982 0.00662474 0.0205 0.0005 
1778 1 0.0015296 0.00713006 0.0219176 0.0005 
380 1 0.00540921 0.00742581 0.0205 0.0005 
256 1 0.00149842 0.0089159 0.0204999 0.0005 
75 1 0.00230814 0.00782078 0.02075 0.00075 
887 1 0.00710503 0.00786353 0.0221412 0.0005 
1359 1 0.00345873 0.00824063 0.0205 0.0005 
588 1 0.00441021 0.00793287 0.0205 0.0005 
360 1 0.00680508 0.012736 0.0205 0.0005 
154 1 0.00526391 0.00958276 0.02075 0.00075 
13 1 0.000499902 0.00896849 0.0205 0.0005 
879 1 0.00560477 0.00840648 0.0204999 0.0005 
137 1 0.000977878 0.00984681 0.0205 0.0005 
44 1 0.00525627 0.0110826 0.02075 0.00075 
1166 1 0.00591534 0.00834207 0.0217089 0.00075 
1234 1 0.00587642 0.00969531 0.0218338 0.0005 
323 1 0.00292074 0.0103221 0.0219997 0.002 
820 1 0.000990663 0.0108471 0.0205 0.0005 
1067 1 0.00776356 0.0130248 0.0205 0.0005 
713 1 0.0030542 0.0125201 0.0205 0.0005 
881 1 0.000500386 0.011719 0.0205 0.0005 
943 1 0.00414969 0.0119534 0.0205 0.0005 
673 1 0.00536866 0.0125783 0.0207497 0.00075 
174 1 0.0014667 0.0127528 0.0209999 0.001 
447 1 0.00623992 0.0103372 0.0205 0.0005 
737 1 0.00580789 0.0137506 0.0205 0.0005 
508 1 0.000499997 0.013785 0.0205 0.0005 
872 1 0.00774182 0.0117998 0.0207499 0.00075 
891 1 0.00662823 0.00836688 0.0205 0.0005 
1190 1 0.00541786 0.0105664 0.0220099 0.0005 
479 1 0.000500075 0.0138648 0.0214968 0.0005 
911 1 0.00485669 0.0118704 0.0216441 0.0005 
35 1 0.0078463 0.00960679 0.0214998 0.0015 
2621 1 0.00637813 0.0116593 0.0205 0.0005 
1032 1 0.00623211 0.0107873 0.0214732 0.0005 
1085 1 0.000749977 0.0119649 0.0223885 0.00075 
742 1 0.000500365 0.0104431 0.0212727 0.0005 
274 1 0.00784999 0.00784587 0.0205 0.0005 
427 1 0.00454729 0.00845185 0.021595 0.0005 
1407 1 0.000749977 0.00796269 0.0211996 0.00075 
401 1 0.00658597 0.0122839 0.0223087 0.00125 
1617 1 0.00180272 0.00809036 0.0218613 0.0005 
2240 1 0.00191667 0.0126389 0.0224263 0.0005 
1492 1 0.000500104 0.00727462 0.0222129 0.0005 
581 1 0.0126716 0.00721128 0.022123 0.00075 
171 1 0.013267 0.0073115 0.0207499 0.00075 
1070 1 0.00823585 0.00725282 0.0218746 0.00075 
636 1 0.0121482 0.0078152 0.0205 0.0005 
275 1 0.0146839 0.0082666 0.0207499 0.00075 
46 1 0.00907394 0.00778448 0.0207499 0.00075 
556 1 0.0138204 0.00949348 0.0207498 0.00075 
287 1 0.0108011 0.0111567 0.0205 0.0005 
865 1 0.0136237 0.0122114 0.0205 0.0005 
756 1 0.0116998 0.00954328 0.0214999 0.0015 
318 1 0.0135952 0.00835343 0.0217779 0.00075 
686 1 0.00950545 0.00899747 0.0205 0.0005 
10 1 0.0156846 0.00898733 0.0205 0.0005 
569 1 0.0125174 0.0110852 0.0205 0.0005 
252 1 0.00880643 0.0111945 0.0205 0.0005 
188 1 0.0149686 0.0133034 0.0214997 0.0015 
772 1 0.0126295 0.0121033 0.0205 0.0005 
709 1 0.00978791 0.0104621 0.0207499 0.00075 
1061 1 0.0116806 0.0116339 0.0205 0.0005 
1118 1 0.00954185 0.0105628 0.0219713 0.0005 
59 1 0.0118425 0.0127204 0.0205 0.0005 
974 1 0.0116941 0.013854 0.0205 0.0005 
734 1 0.0128454 0.0134274 0.02075 0.00075 
968 1 0.0123124 0.0117047 0.0216415 0.00075 
62 1 0.00986343 0.0130451 0.0219998 0.002 
1238 1 0.0103475 0.0084579 0.0205 0.0005 
1028 1 0.0137389 0.0109913 0.0207499 0.00075 
1653 1 0.0146198 0.00960922 0.0217033 0.0005 
80 1 0.0154427 0.0106472 0.0209999 0.001 
810 1 0.00964336 0.00836258 0.0220343 0.00075 
1080 1 0.0138022 0.0114956 0.0221611 0.00075 
192 1 0.0159223 0.00741863 0.0207496 0.00075 
1883 1 0.0149958 0.0106357 0.0224321 0.0005 
1056 1 0.0159003 0.0116202 0.0220464 0.0005 
938 1 0.00973224 0.00960163 0.0221742 0.0005 
1257 1 0.00806524 0.011359 0.022439 0.0005 
714 1 0.0160292 0.0119339 0.0204999 0.0005 
1922 1 0.0165524 0.00846944 0.0205 0.0005 
6 1 0.022396 0.00760554 0.0209999 0.001 
190 1 0.0174565 0.00760023 0.0207496 0.00075 
1846 1 0.0166805 0.00946275 0.0205 0.0005 
342 1 0.0170023 0.0126775 0.0207499 0.00075 
319 1 0.0210086 0.00790278 0.0205 0.0005 
293 1 0.0188906 0.011377 0.0217496 0.00175 
735 1 0.020811 0.0102197 0.0215573 0.0005 
308 1 0.0201166 0.00901264 0.0209999 0.001 
49 1 0.0172796 0.0102641 0.0205 0.0005 
146 1 0.019412 0.00778645 0.0205 0.0005 
578 1 0.0230001 0.00951198 0.0209998 0.001 
90 1 0.0186739 0.00812807 0.0214491 0.00075 
71 1 0.0216091 0.00882123 0.0205 0.0005 
659 1 0.0179792 0.00925875 0.02075 0.00075 
967 1 0.0170253 0.0112312 0.0205 0.0005 
130 1 0.0208351 0.0124999 0.0205 0.0005 
41 1 0.0216742 0.0106264 0.02075 0.00075 
231 1 0.0235 0.0108477 0.0205 0.0005 
279 1 0.0235 0.00830363 0.0217372 0.0005 
693 1 0.0211432 0.0081259 0.02164 0.0005 
725 1 0.0226687 0.0117494 0.0207499 0.00075 
697 1 0.0204744 0.0103808 0.0204999 0.0005 
330 1 0.0223686 0.0132189 0.02075 0.00075 
800 1 0.0207616 0.0114439 0.0205 0.0005 
538 1 0.023488 0.0126869 0.0205 0.0005 
1236 1 0.0177516 0.0136993 0.022245 0.0005 
812 1 0.0214745 0.0125155 0.0212686 0.0005 
944 1 0.0235001 0.0139595 0.0214618 0.0005 
794 1 0.0169383 0.0132765 0.0218451 0.0005 
592 1 0.0181481 0.0131097 0.0204999 0.0005 
910 1 0.0215539 0.00928892 0.0219596 0.00075 
956 1 0.0191407 0.0132313 0.0205 0.0005 
1899 1 0.0165562 0.0116252 0.0212917 0.0005 
1138 1 0.0225476 0.0108927 0.0219751 0.00075 
272 1 0.0235001 0.0136873 0.0204998 0.0005 
770 1 0.0235 0.0117499 0.0216833 0.0005 
1517 1 0.0211764 0.0115702 0.0214011 0.0005 
1498 1 0.0185342 0.0136619 0.0212387 0.0005 
1575 1 0.0218654 0.00813692 0.0223315 0.0005 
2494 1 0.0187431 0.0135738 0.0222126 0.0005 
296 1 0.00379469 0.014645 0.0222498 0.00225 
646 1 0.00138002 0.0144214 0.0205 0.0005 
521 1 0.00109836 0.014638 0.0217091 0.0005 
439 1 0.0071486 0.0146665 0.0212499 0.00125 
196 1 0.000500001 0.0146971 0.02091 0.0005 
782 1 0.000500014 0.01545 0.0215682 0.0005 
70 1 0.00050003 0.0156092 0.0205 0.0005 
888 1 0.00339639 0.0167294 0.0205 0.0005 
550 1 0.00277893 0.0175163 0.0205 0.0005 
1 1 0.00782793 0.0167695 0.02075 0.00075 
529 1 0.00129233 0.0169776 0.0212499 0.00125 
269 1 0.00707122 0.0186745 0.0212499 0.00125 
19 1 0.00470299 0.0178735 0.0212498 0.00125 
1077 1 0.00619803 0.0173542 0.0205 0.0005 
1004 1 0.00596372 0.020263 0.0207499 0.00075 
688 1 0.000499999 0.0203117 0.0205 0.0005 
1660 1 0.00508862 0.0194066 0.0204997 0.0005 
972 1 0.00591065 0.0161601 0.02075 0.00075 
223 1 0.0036955 0.0206548 0.0217499 0.00175 
315 1 0.00270304 0.0183881 0.0213943 0.00075 
576 1 0.000749924 0.0188365 0.0207497 0.00075 
1094 1 0.00615905 0.0203883 0.0222318 0.00075 
1884 1 0.000516048 0.0202235 0.0214959 0.0005 
430 1 0.0019743 0.0188694 0.0205 0.0005 
1829 1 0.00625535 0.0171847 0.0216759 0.0005 
1696 1 0.00623156 0.0159074 0.0220754 0.0005 
1613 1 0.00296912 0.0172199 0.0217499 0.0005 
1859 1 0.00718811 0.0202893 0.0205 0.0005 
436 1 0.0068803 0.0164233 0.0215022 0.0005 
695 1 0.00789021 0.0163737 0.0222458 0.00075 
624 1 0.0123682 0.0146427 0.0220449 0.0005 
611 1 0.00912226 0.0149065 0.0205 0.0005 
110 1 0.013826 0.0148501 0.0205 0.0005 
2226 1 0.0127296 0.0147667 0.0205027 0.0005 
877 1 0.0102758 0.0196213 0.0205 0.0005 
1570 1 0.00827195 0.0197547 0.0205 0.0005 
54 1 0.00890474 0.0177997 0.022217 0.001 
118 1 0.0148917 0.016041 0.0212499 0.00125 
717 1 0.0116735 0.0186823 0.0205 0.0005 
1232 1 0.0113603 0.0147988 0.0205 0.0005 
934 1 0.0128486 0.0193578 0.02075 0.00075 
1310 1 0.0129648 0.0172418 0.0205 0.0005 
1212 1 0.0147697 0.0185312 0.0205 0.0005 
1035 1 0.0115619 0.0176561 0.0205 0.0005 
1592 1 0.0116676 0.0196823 0.0205 0.0005 
1697 1 0.0100173 0.0205873 0.0205 0.0005 
2033 1 0.0127795 0.0202941 0.0215752 0.0005 
1264 1 0.011005 0.0204313 0.0205 0.0005 
1164 1 0.0121123 0.0209547 0.02075 0.00075 
982 1 0.0145927 0.0203543 0.0205 0.0005 
1448 1 0.0125163 0.0181435 0.0205001 0.0005 
2386 1 0.0135734 0.0181108 0.0211672 0.00075 
2420 1 0.0132682 0.0205498 0.0205 0.0005 
2431 1 0.0144804 0.017568 0.0205 0.0005 
2287 1 0.0140899 0.0192753 0.0205018 0.0005 
2500 1 0.0147251 0.0197269 0.0212673 0.0005 
2378 1 0.013783 0.0200553 0.0212001 0.0005 
2447 1 0.0137208 0.0192353 0.0221537 0.00075 
2086 1 0.0130875 0.0168374 0.0214062 0.0005 
1311 1 0.0152774 0.0193942 0.0205 0.0005 
2645 1 0.0149097 0.0178951 0.0213416 0.0005 
1376 1 0.00926566 0.0197315 0.0208598 0.0005 
2392 1 0.0117669 0.0182562 0.0214001 0.0005 
1757 1 0.0149696 0.0206248 0.0216332 0.0005 
2594 1 0.0134668 0.020994 0.0213736 0.0005 
2618 1 0.0150635 0.0174761 0.0222363 0.0005 
2897 1 0.00963584 0.0188529 0.0205 0.0005 
1338 1 0.0154727 0.0177401 0.0205 0.0005 
2978 1 0.00933639 0.0169287 0.02075 0.00075 
2989 1 0.0108016 0.018909 0.0209648 0.0005 
2598 1 0.0154765 0.0189177 0.0222823 0.001 
2289 1 0.0126168 0.0186488 0.0217671 0.0005 
3051 1 0.0117497 0.0165883 0.0213963 0.0005 
3061 1 0.00860537 0.0156547 0.0211914 0.0005 
3029 1 0.0106016 0.0199336 0.0216213 0.0005 
3080 1 0.0107155 0.0161878 0.021584 0.0005 
2473 1 0.0141251 0.0180034 0.022284 0.0005 
43 1 0.0158671 0.0147856 0.0205 0.0005 
3118 1 0.0101334 0.0154065 0.0211802 0.0005 
748 1 0.00850545 0.0151301 0.0222531 0.0005 
2294 1 0.012966 0.0176267 0.0221497 0.0005 
3001 1 0.0118161 0.0210897 0.0219577 0.0005 
3168 1 0.0126422 0.0160826 0.0222925 0.0005 
3174 1 0.0100203 0.0179722 0.0212276 0.0005 
523 1 0.0187031 0.0143142 0.0204999 0.0005 
639 1 0.0225297 0.0142329 0.021463 0.0005 
350 1 0.0205263 0.0142706 0.0214998 0.0015 
78 1 0.0227577 0.0143802 0.0205 0.0005 
2511 1 0.0161474 0.0170019 0.0205 0.0005 
2117 1 0.0166143 0.0157262 0.0214862 0.0005 
189 1 0.0164164 0.0156214 0.0205 0.0005 
2460 1 0.0161563 0.0189171 0.0205 0.0005 
139 1 0.0172731 0.0144694 0.0209999 0.001 
1193 1 0.0186383 0.0149821 0.0213545 0.0005 
345 1 0.01909 0.0152386 0.0205 0.0005 
741 1 0.0179772 0.0157366 0.0214828 0.0005 
450 1 0.0181098 0.0156093 0.0204999 0.0005 
947 1 0.0174522 0.0178767 0.0205 0.0005 
591 1 0.0222566 0.0154978 0.0207499 0.00075 
465 1 0.0182374 0.0172549 0.0204999 0.0005 
719 1 0.0189507 0.0163717 0.021023 0.00075 
628 1 0.0235001 0.0167138 0.0205 0.0005 
42 1 0.0223203 0.0170424 0.0207499 0.00075 
747 1 0.0211004 0.0159047 0.0204999 0.0005 
813 1 0.0201008 0.0169207 0.0204999 0.0005 
787 1 0.0184835 0.0182241 0.0204999 0.0005 
492 1 0.0192617 0.0174646 0.0205 0.0005 
238 1 0.0235 0.0177417 0.0205 0.0005 
1216 1 0.019653 0.0175151 0.0216929 0.00075 
1230 1 0.0172688 0.0165012 0.02075 0.00075 
566 1 0.0206859 0.0180568 0.0207498 0.00075 
1333 1 0.0211012 0.0169046 0.0205 0.0005 
1091 1 0.0194589 0.018445 0.0205 0.0005 
1398 1 0.0211093 0.0201886 0.0205 0.0005 
1189 1 0.0235 0.0148397 0.0209876 0.0005 
1427 1 0.0199912 0.0159178 0.0204999 0.0005 
898 1 0.0185587 0.0180829 0.0214869 0.0005 
1452 1 0.0200001 0.0195436 0.02075 0.00075 
1488 1 0.0182838 0.0194325 0.02075 0.00075 
1124 1 0.0235 0.0157125 0.0204997 0.0005 
1020 1 0.0225 0.0191561 0.0214999 0.0015 
1401 1 0.0214209 0.0165115 0.0221539 0.001 
1298 1 0.0201548 0.0164074 0.0213563 0.0005 
1170 1 0.0232498 0.0162123 0.0216175 0.00075 
1831 1 0.017656 0.0184837 0.021268 0.0005 
957 1 0.0233181 0.0210184 0.0204999 0.0005 
1320 1 0.018663 0.0208837 0.02075 0.00075 
1598 1 0.0197785 0.0206344 0.0213186 0.0005 
1437 1 0.0235001 0.0208878 0.0214744 0.0005 
1184 1 0.0235001 0.0174251 0.0214485 0.0005 
1692 1 0.0191942 0.0188877 0.0214459 0.0005 
1828 1 0.0179153 0.0173186 0.0214443 0.0005 
1202 1 0.0206654 0.0199151 0.0217408 0.0005 
1460 1 0.0207522 0.0208645 0.0214391 0.0005 
1984 1 0.0191055 0.0199305 0.0215494 0.0005 
1738 1 0.0171555 0.0189561 0.0205 0.0005 
1648 1 0.0166739 0.020521 0.0212499 0.00125 
2467 1 0.016455 0.0179551 0.0205 0.0005 
1963 1 0.0186648 0.0207126 0.0219903 0.0005 
1434 1 0.0232491 0.014868 0.0222828 0.00075 
1796 1 0.0197981 0.0194352 0.0220737 0.0005 
1105 1 0.0203771 0.0208697 0.0205 0.0005 
1865 1 0.0166597 0.0185663 0.0212896 0.0005 
1767 1 0.0209798 0.0179406 0.021959 0.0005 
1929 1 0.020528 0.0188759 0.0216807 0.0005 
2072 1 0.0235 0.017685 0.0224142 0.0005 
2099 1 0.0199269 0.0162133 0.0223104 0.0005 
838 1 0.0166072 0.0172715 0.0221766 0.001 
2396 1 0.0173756 0.0157253 0.0222815 0.0005 
896 1 0.00698266 0.0216114 0.0205028 0.0005 
678 1 0.0012095 0.0215601 0.0209999 0.001 
700 1 0.00571263 0.0217416 0.0207499 0.00075 
1293 1 0.00260185 0.0221729 0.0205 0.0005 
1416 1 0.0036234 0.0225243 0.0204999 0.0005 
1578 1 0.0051259 0.0226646 0.0213559 0.0005 
482 1 0.000499946 0.0227833 0.0204999 0.0005 
12 1 0.00234153 0.0233697 0.0207499 0.00075 
952 1 0.00590959 0.0253696 0.0205 0.0005 
1439 1 0.00683085 0.024391 0.0207499 0.00075 
831 1 0.00511771 0.0241219 0.0209999 0.001 
534 1 0.000856663 0.0239549 0.0207498 0.00075 
1423 1 0.00117784 0.0266271 0.0213353 0.0005 
1406 1 0.000720855 0.026139 0.0204999 0.0005 
483 1 0.00050014 0.0271144 0.0205 0.0005 
1483 1 0.00741494 0.0225135 0.0205 0.0005 
1512 1 0.00319841 0.0259639 0.0205 0.0005 
752 1 0.00588602 0.0270549 0.0205002 0.0005 
1805 1 0.00344683 0.0245782 0.02075 0.00075 
1576 1 0.000500857 0.0251289 0.0205 0.0005 
1373 1 0.00689533 0.0260981 0.0207499 0.00075 
1860 1 0.0045942 0.0227764 0.0205 0.0005 
1625 1 0.00050016 0.0229922 0.0214779 0.0005 
1455 1 0.00189808 0.025354 0.0209997 0.001 
1942 1 0.00644769 0.022992 0.0211316 0.00075 
1926 1 0.000499709 0.0245958 0.0217615 0.0005 
1520 1 0.00660599 0.0276424 0.0208709 0.0005 
1143 1 0.00315468 0.0275991 0.0208906 0.00075 
2021 1 0.00773975 0.026985 0.0204999 0.0005 
980 1 0.00532367 0.0278817 0.0205 0.0005 
1825 1 0.000499746 0.0257337 0.0213868 0.0005 
2481 1 0.00747632 0.0279674 0.0205001 0.0005 
2583 1 0.00420467 0.0257382 0.0205 0.0005 
1893 1 0.000977898 0.0253653 0.0221838 0.0005 
2706 1 0.000501156 0.0262829 0.0222224 0.0005 
348 1 0.00241468 0.0266705 0.0205 0.0005 
775 1 0.00526613 0.0262129 0.0219041 0.00125 
1662 1 0.00365509 0.0232891 0.0214881 0.00075 
2168 1 0.00685386 0.0274203 0.0220759 0.00075 
2244 1 0.00149926 0.027073 0.0205 0.0005 
2852 1 0.00428009 0.0267461 0.0205 0.0005 
2884 1 0.00365995 0.0264647 0.0212322 0.0005 
2920 1 0.00571459 0.027835 0.0214261 0.0005 
1474 1 0.0048372 0.0225134 0.0223016 0.0005 
1449 1 0.00192759 0.0279766 0.0205 0.0005 
2833 1 0.00420735 0.0275832 0.0215788 0.0005 
2427 1 0.004333 0.0277456 0.0205 0.0005 
1991 1 0.00632048 0.0244549 0.0222266 0.00075 
2565 1 0.00755112 0.0235572 0.0213687 0.0005 
2813 1 0.00133276 0.0277353 0.0216893 0.0005 
1209 1 0.000500162 0.0271936 0.0218044 0.0005 
1285 1 0.000750118 0.0283182 0.0207499 0.00075 
3065 1 0.00489839 0.0282716 0.0218041 0.0005 
2922 1 0.00223118 0.0272789 0.0224285 0.00075 
1702 1 0.000501749 0.0281722 0.0220405 0.0005 
2864 1 0.00331264 0.0282977 0.0222085 0.00075 
2207 1 0.00183456 0.0217695 0.0223472 0.0005 
2406 1 0.00558401 0.0278936 0.022441 0.0005 
1726 1 0.000504402 0.0223174 0.0222539 0.0005 
600 1 0.00866277 0.0214031 0.0212497 0.00125 
1144 1 0.0101266 0.022297 0.0216079 0.0005 
1577 1 0.0133536 0.0215889 0.0205 0.0005 
1650 1 0.00806361 0.0232736 0.0205457 0.0005 
946 1 0.00816498 0.0251953 0.022004 0.00125 
904 1 0.00827751 0.0242535 0.0205 0.0005 
1081 1 0.00832957 0.0261206 0.0205 0.0005 
1343 1 0.0107997 0.021686 0.02075 0.00075 
1394 1 0.00947849 0.0235054 0.0209999 0.001 
1698 1 0.00968246 0.0255478 0.0207499 0.00075 
1342 1 0.0110007 0.0246817 0.0216047 0.00075 
978 1 0.0105593 0.0265177 0.0205 0.0005 
1208 1 0.0104282 0.0245535 0.0205 0.0005 
1350 1 0.013537 0.0238931 0.0205 0.0005 
919 1 0.00934661 0.0279414 0.021751 0.00175 
780 1 0.0129117 0.0257255 0.0205 0.0005 
353 1 0.0146708 0.0236563 0.0205 0.0005 
1294 1 0.0127692 0.0227098 0.0205 0.0005 
1180 1 0.0119237 0.0221727 0.0205 0.0005 
1462 1 0.0118052 0.0258582 0.0213401 0.0005 
1467 1 0.0124164 0.0236539 0.0205 0.0005 
1552 1 0.0127885 0.0220294 0.0215487 0.00075 
1602 1 0.0115423 0.0263326 0.0205 0.0005 
1621 1 0.0130097 0.0252606 0.021657 0.00075 
861 1 0.0143246 0.0248312 0.02075 0.00075 
1643 1 0.0119994 0.0253163 0.0205 0.0005 
1539 1 0.012979 0.0247229 0.0205 0.0005 
1330 1 0.0140381 0.0237771 0.0213576 0.0005 
1192 1 0.0148255 0.0259733 0.0205 0.0005 
1614 1 0.0111978 0.0232116 0.02075 0.00075 
1693 1 0.0152327 0.0228133 0.0205 0.0005 
1618 1 0.0115105 0.0243958 0.0204999 0.0005 
1221 1 0.0139918 0.0226344 0.02075 0.00075 
1915 1 0.0138349 0.0261098 0.0205 0.0005 
1869 1 0.0110012 0.0253769 0.0205 0.0005 
2193 1 0.0111652 0.0273303 0.0205 0.0005 
2263 1 0.0140921 0.025847 0.0214404 0.0005 
2270 1 0.0127911 0.0273025 0.0212499 0.00125 
1753 1 0.0153537 0.0238892 0.0211924 0.0005 
862 1 0.0145726 0.0275428 0.0205 0.0005 
1775 1 0.0140955 0.0217341 0.0216132 0.0005 
2004 1 0.0144352 0.0267226 0.0210995 0.0005 
1958 1 0.0144643 0.0277537 0.0215014 0.0005 
2243 1 0.0156208 0.0269078 0.0207499 0.00075 
1017 1 0.0150011 0.021509 0.02075 0.00075 
2348 1 0.0147843 0.0231461 0.02157 0.0005 
1955 1 0.0150721 0.0261828 0.0216497 0.0005 
1563 1 0.015968 0.0235113 0.0204999 0.0005 
2603 1 0.0130657 0.0233582 0.0212012 0.0005 
2121 1 0.010742 0.0259286 0.0212928 0.0005 
2261 1 0.0154662 0.0279289 0.0214541 0.0005 
2026 1 0.0112316 0.0267131 0.0217818 0.0005 
2662 1 0.013575 0.0230365 0.0219994 0.0005 
2201 1 0.012263 0.0243908 0.0211585 0.0005 
1935 1 0.0112062 0.0283545 0.0205 0.0005 
2010 1 0.0133313 0.0240988 0.0219876 0.0005 
1931 1 0.0110043 0.0257571 0.0222424 0.0005 
2419 1 0.0151069 0.0271702 0.0219975 0.0005 
1768 1 0.015926 0.0280943 0.0205 0.0005 
2097 1 0.00988157 0.0248334 0.022146 0.0005 
2143 1 0.00836842 0.0234308 0.022006 0.0005 
2681 1 0.015146 0.0215405 0.0219944 0.0005 
2411 1 0.0100111 0.0258259 0.0221362 0.0005 
1682 1 0.0110487 0.0222571 0.0221003 0.0005 
1655 1 0.0120242 0.0234236 0.0222798 0.001 
1989 1 0.0141596 0.0265209 0.022491 0.00075 
144 1 0.0160247 0.0252235 0.0209999 0.001 
1837 1 0.0160698 0.0269345 0.0221275 0.0005 
1794 1 0.0161919 0.0227119 0.021853 0.001 
1219 1 0.0220101 0.0215558 0.0209999 0.001 
152 1 0.0208667 0.0236247 0.0204998 0.0005 
1292 1 0.017132 0.0238916 0.02075 0.00075 
512 1 0.0190622 0.0269394 0.0204999 0.0005 
1288 1 0.0161217 0.0220033 0.0205 0.0005 
1048 1 0.0179639 0.0222109 0.0207501 0.00075 
1415 1 0.0215467 0.0228917 0.0204999 0.0005 
1087 1 0.0234988 0.025657 0.0205 0.0005 
1176 1 0.0184067 0.025905 0.0207499 0.00075 
1269 1 0.0232501 0.0227649 0.0207498 0.00075 
1507 1 0.0235 0.0248228 0.0218675 0.0005 
1574 1 0.0235003 0.0267108 0.0204997 0.0005 
1472 1 0.0232502 0.0243222 0.0207498 0.00075 
1590 1 0.0222371 0.0250098 0.0204997 0.0005 
1634 1 0.0186315 0.0238473 0.0207494 0.00075 
908 1 0.022304 0.0235447 0.0205 0.0005 
1646 1 0.0168417 0.0227016 0.0205004 0.0005 
1927 1 0.0171885 0.0260383 0.0205 0.0005 
1897 1 0.0178863 0.023206 0.0218821 0.00075 
1370 1 0.0229895 0.0278237 0.0207499 0.00075 
1243 1 0.0201587 0.0250382 0.0212499 0.00125 
1978 1 0.0174532 0.0250738 0.0205 0.0005 
1881 1 0.0168325 0.024321 0.0218851 0.0005 
1514 1 0.0198932 0.0223792 0.0212499 0.00125 
1925 1 0.0216219 0.024248 0.0207012 0.0005 
1527 1 0.0179638 0.0248149 0.0216801 0.00075 
1106 1 0.0174286 0.0276018 0.0212499 0.00125 
1323 1 0.0189739 0.0279354 0.0204999 0.0005 
1090 1 0.0224176 0.0261953 0.0217738 0.00125 
1015 1 0.0217636 0.0277587 0.0205 0.0005 
1974 1 0.0235 0.0282403 0.021812 0.0005 
1267 1 0.0204402 0.0272564 0.021 0.001 
2065 1 0.0190247 0.0238949 0.021935 0.0005 
1910 1 0.0191416 0.0277264 0.0215853 0.0005 
2198 1 0.0234999 0.0274247 0.0223905 0.0005 
2162 1 0.0211139 0.0215643 0.0222026 0.0005 
2008 1 0.01867 0.0283143 0.0222571 0.0005 
1606 1 0.0188624 0.0263932 0.022493 0.001 
2303 1 0.0179673 0.0217356 0.0221731 0.00075 
2449 1 0.00720505 0.0285182 0.0213458 0.0005 
1480 1 0.00613823 0.0287963 0.0207496 0.00075 
1103 1 0.00483162 0.0287525 0.0205 0.0005 
138 1 0.00766574 0.0289494 0.0205 0.0005 
162 1 0.000501585 0.0314222 0.0205 0.0005 
259 1 0.00372944 0.0319229 0.0205 0.0005 
522 1 0.00176918 0.0336847 0.0207499 0.00075 
337 1 0.00268419 0.0299579 0.02075 0.00075 
638 1 0.0054143 0.0331712 0.0207499 0.00075 
506 1 0.000695976 0.0344464 0.0208092 0.0005 
1084 1 0.00127047 0.0304689 0.0207498 0.00075 
1355 1 0.00318627 0.0334135 0.0205 0.0005 
1451 1 0.00382572 0.0286073 0.0205 0.0005 
412 1 0.00220574 0.0320086 0.0209998 0.001 
1607 1 0.00152036 0.0292701 0.0204999 0.0005 
1290 1 0.00049992 0.0295171 0.0205 0.0005 
1761 1 0.0064654 0.0345208 0.0205 0.0005 
1760 1 0.00418252 0.0332576 0.0205 0.0005 
1611 1 0.00506684 0.0343482 0.0205 0.0005 
2278 1 0.00283495 0.0287426 0.0204999 0.0005 
2306 1 0.00534444 0.0316731 0.0207501 0.00075 
2343 1 0.00554762 0.030465 0.0205 0.0005 
2387 1 0.00670774 0.0323099 0.0207499 0.00075 
2407 1 0.00429487 0.0310394 0.0204998 0.0005 
2421 1 0.00658574 0.0335282 0.0205 0.0005 
672 1 0.00734125 0.0353491 0.0208305 0.00075 
2537 1 0.00411497 0.0295645 0.0205 0.0005 
1872 1 0.00715776 0.0304338 0.0212764 0.00125 
1792 1 0.00404517 0.0314225 0.0216629 0.00075 
2484 1 0.0054823 0.0307953 0.0216305 0.0005 
2573 1 0.00505716 0.0296585 0.0213311 0.00075 
1993 1 0.00206809 0.0287307 0.0214869 0.00075 
2455 1 0.0075203 0.0329581 0.0214592 0.0005 
2622 1 0.00667146 0.031957 0.0220107 0.0005 
1291 1 0.000770974 0.0329125 0.0215606 0.00075 
2548 1 0.00293976 0.0308434 0.0215943 0.0005 
2570 1 0.00583483 0.0323986 0.021644 0.0005 
897 1 0.000499989 0.0335158 0.0205 0.0005 
1168 1 0.00428586 0.0329023 0.0217007 0.00075 
1136 1 0.000749878 0.0314285 0.0217783 0.00075 
2381 1 0.00414463 0.0288089 0.021426 0.0005 
2530 1 0.00383167 0.0303487 0.0210548 0.0005 
2154 1 0.000775237 0.0294494 0.0217358 0.00075 
535 1 0.00146063 0.0350961 0.0205 0.0005 
2604 1 0.00637881 0.0341454 0.0222074 0.00125 
2371 1 0.00203669 0.0304387 0.0217367 0.0005 
2660 1 0.0047053 0.0304993 0.0221864 0.0005 
2423 1 0.00628081 0.0289116 0.0222382 0.00075 
2337 1 0.00755089 0.0332389 0.0205 0.0005 
2626 1 0.00521823 0.0316948 0.0219976 0.0005 
2456 1 0.00765823 0.0320263 0.0218643 0.0005 
2628 1 0.00164255 0.0337235 0.0219929 0.0005 
2874 1 0.00775587 0.0352109 0.0220223 0.0005 
835 1 0.00775631 0.0342175 0.0204999 0.0005 
2718 1 0.00340431 0.0297971 0.0220961 0.00075 
1417 1 0.000769373 0.0346313 0.0220434 0.00075 
2759 1 0.00211967 0.0296664 0.0223663 0.0005 
2152 1 0.000500989 0.0353774 0.0205 0.0005 
2493 1 0.00849891 0.035331 0.0213016 0.0005 
2772 1 0.00819117 0.0297228 0.0224987 0.0005 
2393 1 0.0115227 0.0284738 0.0215379 0.0005 
1987 1 0.0148687 0.0286363 0.0218326 0.0005 
1870 1 0.0142512 0.0287295 0.0207499 0.00075 
2301 1 0.0126086 0.0291869 0.022049 0.00075 
505 1 0.00848886 0.0296036 0.0205 0.0005 
886 1 0.0087452 0.0305702 0.0205036 0.0005 
1249 1 0.0130413 0.0328135 0.0207512 0.00075 
1154 1 0.0108596 0.032406 0.0205 0.0005 
609 1 0.0118541 0.0325132 0.0205 0.0005 
1134 1 0.00820312 0.0321807 0.02075 0.00075 
1340 1 0.0112538 0.0333251 0.0205 0.0005 
1678 1 0.0121833 0.0336941 0.0205 0.0005 
1703 1 0.0104222 0.0315068 0.0204999 0.0005 
1095 1 0.0131783 0.0340301 0.0204998 0.0005 
1815 1 0.00919588 0.0314629 0.0205 0.0005 
1348 1 0.0130899 0.0302246 0.0204999 0.0005 
2043 1 0.0106529 0.0292812 0.0205 0.0005 
1867 1 0.00858558 0.0335682 0.0211729 0.00075 
1793 1 0.0143578 0.0299029 0.0219187 0.00075 
2242 1 0.011983 0.0311048 0.0209999 0.001 
2245 1 0.00985756 0.0307253 0.0212951 0.00075 
2266 1 0.0130161 0.0288729 0.0205 0.0005 
1954 1 0.0108301 0.0302752 0.0205 0.0005 
1762 1 0.00871499 0.0312259 0.0213744 0.0005 
640 1 0.0096504 0.0326002 0.0207499 0.00075 
2323 1 0.0125512 0.0348102 0.0205 0.0005 
2362 1 0.0140526 0.0299428 0.0205 0.0005 
2347 1 0.0115985 0.0345054 0.0205 0.0005 
1361 1 0.0152542 0.0301863 0.0207499 0.00075 
2202 1 0.0139763 0.0313553 0.021 0.001 
2451 1 0.011883 0.0293756 0.0207499 0.00075 
1083 1 0.0147381 0.0337534 0.0212498 0.00125 
2305 1 0.0153343 0.0311226 0.021594 0.0005 
2225 1 0.00977694 0.0297644 0.0205 0.0005 
2408 1 0.0132377 0.0347195 0.0212214 0.0005 
2304 1 0.0102026 0.034276 0.0209999 0.001 
2574 1 0.0134168 0.0295594 0.0211711 0.0005 
698 1 0.015582 0.0320106 0.0207499 0.00075 
2317 1 0.011085 0.0299649 0.022419 0.001 
2404 1 0.0124569 0.0338723 0.0217067 0.00075 
2390 1 0.00900122 0.0321347 0.0217142 0.0005 
2252 1 0.0120084 0.0325761 0.021486 0.0005 
2577 1 0.0113227 0.0333804 0.0214981 0.0005 
2505 1 0.0130388 0.0303112 0.0217112 0.0005 
2439 1 0.0155824 0.0323846 0.0219426 0.0005 
2247 1 0.0115569 0.0348297 0.0214728 0.0005 
1786 1 0.0154513 0.0289775 0.0205 0.0005 
2469 1 0.00904576 0.0350895 0.0205 0.0005 
2412 1 0.013256 0.031064 0.0223326 0.0005 
2345 1 0.0108812 0.0319545 0.0224365 0.001 
2297 1 0.0133016 0.0325537 0.0225015 0.001 
2379 1 0.0122975 0.0314418 0.0224274 0.0005 
2612 1 0.00850692 0.0345565 0.0219341 0.0005 
2443 1 0.0088133 0.03018 0.0218151 0.0005 
2502 1 0.0147077 0.031951 0.0221683 0.0005 
2887 1 0.0100418 0.0330497 0.0218486 0.0005 
2690 1 0.0118274 0.0331176 0.0224793 0.0005 
2217 1 0.00948773 0.0351581 0.0220165 0.0005 
2357 1 0.0111981 0.0341975 0.0224913 0.00075 
2239 1 0.0121597 0.0349675 0.0222798 0.0005 
2639 1 0.00843887 0.0312541 0.0223375 0.0005 
2349 1 0.0105994 0.0352298 0.0220872 0.0005 
1167 1 0.0141907 0.0352377 0.0205 0.0005 
1594 1 0.0139575 0.035342 0.0215284 0.0005 
924 1 0.0110561 0.0354038 0.0205 0.0005 
2391 1 0.0129729 0.0354099 0.0218943 0.0005 
2376 1 0.0130749 0.0346184 0.0224965 0.0005 
1854 1 0.0160554 0.0290069 0.0216843 0.00075 
1409 1 0.0164507 0.0289456 0.0205 0.0005 
1113 1 0.0175239 0.0295358 0.0207499 0.00075 
1044 1 0.0196342 0.0293718 0.0212499 0.00125 
557 1 0.019381 0.0339405 0.0212771 0.00125 
304 1 0.0225039 0.0311125 0.0204999 0.0005 
1142 1 0.0223221 0.0344972 0.0205 0.0005 
1335 1 0.0170684 0.0326119 0.0205 0.0005 
1414 1 0.0235 0.0348753 0.0205 0.0005 
1016 1 0.0230966 0.0321842 0.0207502 0.00075 
1531 1 0.0174265 0.0336042 0.0204996 0.0005 
1329 1 0.0235 0.0289369 0.0204999 0.0005 
1318 1 0.0181741 0.0329406 0.0204997 0.0005 