ITEM: TIMESTEP
700000
ITEM: NUMBER OF ATOMS
3132
ITEM: BOX BOUNDS mm mm mm
-2.4e-06 0.0240024
-7.8e-06 0.0780078
-3e-06 0.030003
ITEM: ATOMS id type x y z radius 
1 1 0.00336451 0.00218263 0.0215004 0.0015 
2 1 0.000499988 0.00149989 0.0204999 0.0005 
3 1 0.00545639 0.004145 0.0207499 0.00075 
4 1 0.00477633 0.000500003 0.0205 0.0005 
5 1 0.0043602 0.00359918 0.0204998 0.0005 
6 1 0.00277676 0.000499922 0.0204999 0.0005 
7 1 0.00462755 0.00591325 0.0205 0.0005 
8 1 0.000499721 0.000499887 0.0204999 0.0005 
9 1 0.00099995 0.00282278 0.0209999 0.001 
10 1 0.00703436 0.00546626 0.0205 0.0005 
11 1 0.00377654 0.000500169 0.0205003 0.0005 
12 1 0.000500174 0.00549574 0.0205 0.0005 
13 1 0.00630436 0.00322956 0.0214364 0.0005 
14 1 0.004963 0.00151651 0.0204999 0.0005 
15 1 0.00116745 0.00624062 0.0205 0.0005 
16 1 0.00596263 0.00148245 0.0205 0.0005 
17 1 0.000500001 0.0041457 0.0205 0.0005 
18 1 0.00543851 0.00264512 0.02075 0.00075 
19 1 0.00611671 0.000499941 0.0216252 0.0005 
20 1 0.00577611 0.000499933 0.0205 0.0005 
21 1 0.000724275 0.000499969 0.0214743 0.0005 
22 1 0.00691816 0.00224864 0.02075 0.00075 
23 1 0.00163816 0.000950431 0.0207501 0.00075 
24 1 0.00697461 0.000749864 0.0207512 0.00075 
25 1 0.00315953 0.00391704 0.0205 0.0005 
27 1 0.00259883 0.00494821 0.0204999 0.0005 
28 1 0.00224241 0.00350167 0.0205 0.0005 
29 1 0.0017876 0.000749978 0.0222291 0.00075 
31 1 0.000502526 0.00147471 0.0214996 0.0005 
32 1 0.000500015 0.00625523 0.0212446 0.0005 
33 1 0.00175915 0.00438803 0.021237 0.00075 
34 1 0.00655017 0.00348021 0.0205 0.0005 
36 1 0.00531056 0.000962352 0.0212562 0.0005 
37 1 0.00300806 0.00451846 0.0213046 0.0005 
38 1 0.00444394 0.000499952 0.0214435 0.0005 
40 1 0.000499994 0.000499994 0.0224488 0.0005 
41 1 0.0075403 0.00330354 0.0205 0.0005 
43 1 0.00719717 0.0042428 0.0205 0.0005 
1724 1 0.00581709 0.00560093 0.02075 0.00075 
1770 1 0.00170307 0.00539616 0.0205 0.0005 
1665 1 0.00115068 0.00550033 0.0213271 0.0005 
1715 1 0.00516173 0.000501084 0.0221403 0.0005 
1926 1 0.00409363 0.00479441 0.0207499 0.00075 
1662 1 0.00671633 0.00460394 0.0218741 0.001 
1735 1 0.0059381 0.00174829 0.0214636 0.0005 
1762 1 0.0069318 0.00128359 0.022158 0.00075 
2008 1 0.00186884 0.00337084 0.0220929 0.0005 
2110 1 0.00516929 0.00153215 0.0220657 0.0005 
2030 1 0.000499989 0.00214524 0.0222414 0.0005 
2181 1 0.0051508 0.00634959 0.0214969 0.0005 
1610 1 0.00724165 0.00312494 0.0217688 0.0005 
1881 1 0.00774298 0.00226267 0.021689 0.0005 
1977 1 0.00402848 0.000499878 0.0223531 0.0005 
1700 1 0.00768764 0.00635029 0.0219556 0.001 
139 1 0.00732103 0.00642426 0.0205 0.0005 
2188 1 0.00547464 0.00300285 0.0219471 0.0005 
102 1 0.00484732 0.00689076 0.0205 0.0005 
2207 1 0.000500025 0.00474128 0.0213033 0.0005 
1956 1 0.00620271 0.00605636 0.0218483 0.0005 
1682 1 0.00295775 0.0067841 0.0217499 0.00175 
1812 1 0.000749948 0.00399527 0.0222748 0.00075 
2060 1 0.000750018 0.00583992 0.0224614 0.00075 
2077 1 0.00643589 0.00242146 0.0220107 0.0005 
2330 1 0.00147806 0.00195676 0.0221275 0.0005 
42 1 0.00798197 0.0014456 0.0204999 0.0005 
2269 1 0.00261465 0.00430001 0.0224708 0.00075 
35 1 0.0005009 0.00698885 0.0219241 0.0005 
2292 1 0.00864038 0.001071 0.0218454 0.001 
44 1 0.00831888 0.00635943 0.0205 0.0005 
1633 1 0.00839467 0.00382312 0.0205 0.0005 
1806 1 0.00813125 0.0049897 0.0208634 0.00075 
99 1 0.00942259 0.00541961 0.0213939 0.0005 
45 1 0.00908279 0.00571418 0.0205 0.0005 
46 1 0.00920543 0.00445945 0.0205 0.0005 
47 1 0.0115936 0.00424477 0.0205 0.0005 
48 1 0.0101087 0.00283426 0.0205 0.0005 
49 1 0.0137954 0.00230639 0.02075 0.00075 
50 1 0.0101011 0.00180301 0.0204999 0.0005 
51 1 0.0103063 0.000499998 0.0205 0.0005 
52 1 0.0125855 0.00049996 0.0204999 0.0005 
53 1 0.0109462 0.00126848 0.0204999 0.0005 
54 1 0.00830585 0.000499725 0.0204997 0.0005 
55 1 0.0109572 0.00517416 0.0204999 0.0005 
56 1 0.0130865 0.00376279 0.0205 0.0005 
57 1 0.00851743 0.00254679 0.0207498 0.00075 
58 1 0.0109768 0.0062583 0.0205 0.0005 
59 1 0.010081 0.00565596 0.0204999 0.0005 
60 1 0.0126265 0.00563573 0.0214999 0.0015 
61 1 0.0103723 0.00112167 0.0216004 0.00075 
62 1 0.009149 0.00149739 0.0205 0.0005 
63 1 0.00932816 0.00346466 0.0204999 0.0005 
64 1 0.0143628 0.00558717 0.0205 0.0005 
66 1 0.0148892 0.00409313 0.0212499 0.00125 
67 1 0.00930627 0.000501373 0.0205 0.0005 
68 1 0.011685 0.00266626 0.0212499 0.00125 
69 1 0.0137843 0.000749957 0.0207499 0.00075 
70 1 0.010378 0.00409511 0.0207499 0.00075 
71 1 0.0115857 0.000499897 0.0205 0.0005 
72 1 0.0127544 0.00149032 0.0205 0.0005 
75 1 0.0157685 0.00149976 0.0215001 0.0015 
2063 1 0.0125478 0.000499954 0.0214991 0.0005 
2015 1 0.0103964 0.0052008 0.0213325 0.0005 
143 1 0.0149107 0.0064237 0.0204999 0.0005 
1828 1 0.0133414 0.0015233 0.0222559 0.001 
1644 1 0.0105741 0.00582078 0.0224032 0.00075 
1941 1 0.0116261 0.000924014 0.0214047 0.0005 
2441 1 0.0099799 0.00228789 0.0213659 0.0005 
1608 1 0.015921 0.00573169 0.02075 0.00075 
2355 1 0.0090796 0.00587834 0.0222551 0.0005 
2090 1 0.0110592 0.00441816 0.021747 0.0005 
2263 1 0.0112778 0.00704762 0.0219326 0.0005 
2046 1 0.0148197 0.00609572 0.0217027 0.00075 
2268 1 0.0117693 0.00403464 0.0223375 0.0005 
2039 1 0.0113693 0.00132332 0.0223266 0.0005 
2130 1 0.0133229 0.00328442 0.0213686 0.0005 
1623 1 0.0159925 0.00527868 0.0219128 0.0005 
2318 1 0.0159191 0.00327673 0.0224054 0.0005 
2598 1 0.0105616 0.00204043 0.0224368 0.0005 
2848 1 0.0119354 0.000499926 0.0222896 0.0005 
1872 1 0.0144933 0.00278885 0.0223474 0.0005 
74 1 0.0164108 0.00460946 0.0205 0.0005 
76 1 0.0220889 0.000749867 0.02075 0.00075 
77 1 0.0235 0.00522096 0.0205 0.0005 
78 1 0.0203861 0.00106612 0.0209999 0.001 
79 1 0.0232501 0.0016991 0.0207499 0.00075 
81 1 0.0206704 0.00277461 0.0207499 0.00075 
82 1 0.0205149 0.00487685 0.0204999 0.0005 
83 1 0.0187246 0.00161791 0.0207499 0.00075 
84 1 0.021532 0.00190038 0.0205 0.0005 
85 1 0.0172219 0.000501763 0.0205 0.0005 
86 1 0.0235 0.000500076 0.0205 0.0005 
87 1 0.0209363 0.00397007 0.0205 0.0005 
88 1 0.018222 0.00050001 0.0205 0.0005 
89 1 0.0216039 0.00214962 0.0217438 0.00075 
90 1 0.0211091 0.00594764 0.0207499 0.00075 
91 1 0.0198924 0.00580857 0.0204999 0.0005 
92 1 0.0223008 0.00416901 0.0205 0.0005 
93 1 0.0218972 0.00284625 0.0205 0.0005 
95 1 0.0235001 0.00422108 0.0204999 0.0005 
97 1 0.0171414 0.00583278 0.0204998 0.0005 
182 1 0.0232501 0.00641982 0.0207499 0.00075 
1643 1 0.0210871 0.00447712 0.0213504 0.0005 
1663 1 0.0215109 0.00478849 0.0204999 0.0005 
1901 1 0.0202604 0.00622646 0.0216242 0.0005 
1650 1 0.0224061 0.00517224 0.0216405 0.001 
2044 1 0.0169327 0.00278115 0.0204995 0.0005 
1612 1 0.0229417 0.00325064 0.0214978 0.001 
187 1 0.0220621 0.00671672 0.0204999 0.0005 
2221 1 0.0229516 0.000504818 0.0216505 0.0005 
1629 1 0.0185025 0.00420635 0.02225 0.00225 
1979 1 0.0215802 0.00653111 0.02175 0.0005 
2364 1 0.0190159 0.000499895 0.0212269 0.0005 
2071 1 0.0178815 0.000749977 0.0216882 0.00075 
2447 1 0.0215036 0.00357697 0.0212236 0.0005 
2462 1 0.0209434 0.00541386 0.0218679 0.0005 
2334 1 0.0191708 0.00128177 0.0222404 0.00075 
94 1 0.018448 0.00651865 0.0205 0.0005 
96 1 0.020743 0.00701286 0.0220098 0.0005 
80 1 0.0198765 0.00703313 0.0207499 0.00075 
2613 1 0.0203423 0.00215923 0.0220261 0.0005 
2682 1 0.0235 0.00626102 0.0219644 0.0005 
2222 1 0.0215103 0.000750036 0.0223032 0.00075 
2516 1 0.0225536 0.00138269 0.022022 0.0005 
2332 1 0.0201383 0.00049999 0.0223667 0.0005 
2839 1 0.0234992 0.00159631 0.0222792 0.0005 
26 1 0.000749787 0.00739532 0.0207499 0.00075 
100 1 0.00620539 0.00729334 0.0209999 0.001 
101 1 0.00135337 0.00846091 0.0204999 0.0005 
103 1 0.00182369 0.0101175 0.0205 0.0005 
104 1 0.00245215 0.00906494 0.0207497 0.00075 
105 1 0.00714239 0.0117897 0.0204998 0.0005 
106 1 0.00356549 0.00855352 0.0205 0.0005 
107 1 0.00269378 0.011587 0.0205 0.0005 
108 1 0.00458513 0.0105128 0.0207499 0.00075 
109 1 0.000500021 0.0108672 0.0205 0.0005 
110 1 0.00516637 0.00937452 0.0205 0.0005 
111 1 0.00180702 0.0111218 0.0205001 0.0005 
112 1 0.00389152 0.0118428 0.0207499 0.00075 
113 1 0.00593011 0.0100488 0.0212243 0.00075 
114 1 0.00511014 0.0116921 0.0209837 0.0005 
116 1 0.00290276 0.0128728 0.0205 0.0005 
118 1 0.000501232 0.0129595 0.0205001 0.0005 
119 1 0.00379389 0.0133285 0.0205 0.0005 
122 1 0.00594582 0.0120074 0.0205 0.0005 
124 1 0.00569356 0.0110397 0.0205 0.0005 
125 1 0.00491019 0.0125442 0.0205 0.0005 
126 1 0.00371479 0.0127643 0.0215757 0.0005 
128 1 0.00718017 0.0131852 0.0205 0.0005 
129 1 0.00595749 0.0130073 0.0204998 0.0005 
130 1 0.001731 0.0123442 0.0207499 0.00075 
131 1 0.000502768 0.0119593 0.0205 0.0005 
132 1 0.00588179 0.00867589 0.0204999 0.0005 
133 1 0.00416651 0.00936182 0.0204999 0.0005 
134 1 0.000749936 0.0095266 0.0207499 0.00075 
136 1 0.00169473 0.00964045 0.0215603 0.0005 
137 1 0.00280824 0.0123893 0.0213822 0.0005 
138 1 0.000499985 0.00846095 0.0213536 0.0005 
140 1 0.000500027 0.0134625 0.0213647 0.0005 
141 1 0.00784965 0.00783765 0.0207499 0.00075 
1822 1 0.00308803 0.0104239 0.02075 0.00075 
154 1 0.00725404 0.0105702 0.0207499 0.00075 
1865 1 0.000606064 0.0113659 0.0213603 0.0005 
1780 1 0.00474431 0.00822539 0.0207561 0.00075 
222 1 0.00645557 0.0138743 0.0205 0.0005 
1934 1 0.0034126 0.0117867 0.0219032 0.0005 
120 1 0.00499619 0.0137659 0.0207499 0.00075 
1893 1 0.00366181 0.00917976 0.0216287 0.00075 
1655 1 0.0068882 0.00889412 0.0212084 0.00075 
1805 1 0.0022391 0.0112647 0.0216644 0.00075 
1890 1 0.00122749 0.0106146 0.0211381 0.0005 
1970 1 0.00505188 0.0106155 0.0219099 0.0005 
2119 1 0.00157754 0.00853896 0.0214711 0.0005 
1739 1 0.000999936 0.0124342 0.0223372 0.001 
2433 1 0.0026354 0.0132378 0.0220177 0.0005 
123 1 0.000500001 0.0139714 0.0205 0.0005 
2342 1 0.00249798 0.0122964 0.0223285 0.0005 
2047 1 0.00381002 0.010611 0.0220522 0.00075 
1888 1 0.00764391 0.0098439 0.0220897 0.00075 
2665 1 0.00259686 0.00998955 0.0218141 0.0005 
121 1 0.00191091 0.0140683 0.0209999 0.001 
2524 1 0.000824308 0.0141318 0.0220334 0.0005 
65 1 0.0142785 0.00719841 0.0205 0.0005 
163 1 0.0083655 0.0117291 0.02075 0.00075 
183 1 0.0152687 0.00735948 0.0205 0.0005 
148 1 0.00839191 0.013363 0.02075 0.00075 
142 1 0.0138793 0.00811519 0.0204999 0.0005 
144 1 0.00982122 0.0103432 0.0205 0.0005 
145 1 0.0126741 0.00805396 0.0205 0.0005 
147 1 0.0132803 0.00725864 0.0205 0.0005 
149 1 0.00967226 0.00718327 0.0212499 0.00125 
150 1 0.0115853 0.00748389 0.02075 0.00075 
151 1 0.0117682 0.00897265 0.020751 0.00075 
152 1 0.0104251 0.00860569 0.0205 0.0005 
153 1 0.011047 0.0102878 0.0207499 0.00075 
155 1 0.0115315 0.0117073 0.02075 0.00075 
156 1 0.00951304 0.0113013 0.0205 0.0005 
158 1 0.00869081 0.0105485 0.0204999 0.0005 
159 1 0.0132273 0.00888701 0.0205 0.0005 
160 1 0.0103206 0.0118909 0.0204999 0.0005 
164 1 0.0096162 0.0133277 0.0205 0.0005 
165 1 0.00942867 0.0123443 0.0205 0.0005 
166 1 0.0108012 0.0130174 0.02075 0.00075 
167 1 0.00920345 0.00869449 0.0205 0.0005 
168 1 0.012301 0.0129947 0.0207499 0.00075 
169 1 0.0123393 0.0106802 0.0205 0.0005 
170 1 0.0138015 0.010664 0.021 0.001 
171 1 0.00821618 0.00941954 0.0207499 0.00075 
172 1 0.0116706 0.0108674 0.021985 0.00075 
173 1 0.0127529 0.011617 0.0204999 0.0005 
174 1 0.0133944 0.0123974 0.0205 0.0005 
175 1 0.00928367 0.0107303 0.0212881 0.0005 
176 1 0.00892721 0.0124949 0.0215626 0.0005 
177 1 0.00829521 0.010684 0.0214321 0.0005 
179 1 0.0127182 0.0097477 0.0205 0.0005 
180 1 0.0127105 0.011918 0.0217124 0.00075 
184 1 0.014898 0.00968064 0.0212886 0.0005 
1640 1 0.0111809 0.00829362 0.0219545 0.00075 
1732 1 0.00985026 0.00939206 0.0216597 0.001 
181 1 0.0141431 0.0092917 0.0205 0.0005 
191 1 0.0151389 0.00857866 0.02075 0.00075 
1614 1 0.0101519 0.0117373 0.0219824 0.001 
192 1 0.0155195 0.01109 0.0205 0.0005 
1815 1 0.0152744 0.0106057 0.0213398 0.0005 
325 1 0.013355 0.0136183 0.0204999 0.0005 
1676 1 0.0128736 0.0105873 0.0221766 0.0005 
1592 1 0.0152795 0.0130754 0.0220004 0.002 
2095 1 0.0122923 0.00991634 0.0213889 0.0005 
1831 1 0.0085616 0.00850619 0.02153 0.0005 
1916 1 0.0156211 0.0091555 0.0217487 0.0005 
1929 1 0.014727 0.0105377 0.0221739 0.0005 
1775 1 0.0115594 0.0135555 0.0215855 0.0005 
2223 1 0.0127892 0.0132522 0.0218713 0.0005 
2037 1 0.0113345 0.009591 0.0217472 0.0005 
1920 1 0.00971499 0.0139397 0.0221578 0.00125 
1793 1 0.0135754 0.0112788 0.0223493 0.0005 
162 1 0.0102486 0.0141104 0.0204999 0.0005 
260 1 0.0130552 0.01406 0.0213454 0.0005 
201 1 0.0160208 0.00979195 0.02075 0.00075 
1740 1 0.0162648 0.0108863 0.0213024 0.0005 
178 1 0.0170884 0.0122238 0.0204998 0.0005 
185 1 0.0235001 0.00761864 0.0204999 0.0005 
186 1 0.016999 0.00755875 0.0214998 0.0015 
188 1 0.0226437 0.00717196 0.0218973 0.00075 
189 1 0.0235001 0.00961837 0.0204999 0.0005 
190 1 0.0213523 0.00793969 0.021 0.001 
193 1 0.0180868 0.012933 0.02075 0.00075 
194 1 0.0188606 0.007741 0.0205 0.0005 
196 1 0.020163 0.0087455 0.0214313 0.0005 
197 1 0.0188048 0.0092137 0.021 0.001 
198 1 0.0164512 0.0114531 0.0204999 0.0005 
199 1 0.0173912 0.00924556 0.0204998 0.0005 
200 1 0.0230001 0.0108527 0.0211899 0.001 
202 1 0.0204753 0.00906244 0.0205 0.0005 
203 1 0.0173591 0.0104697 0.0207499 0.00075 
204 1 0.0178594 0.0115874 0.0204999 0.0005 
205 1 0.0202617 0.0128672 0.0204999 0.0005 
206 1 0.0213126 0.010998 0.0207499 0.00075 
207 1 0.0234904 0.0120943 0.0205 0.0005 
208 1 0.0235 0.00861849 0.0204999 0.0005 
209 1 0.0198511 0.00825788 0.0205 0.0005 
210 1 0.0221999 0.0123453 0.0207499 0.00075 
211 1 0.0199624 0.0100257 0.0204998 0.0005 
212 1 0.0224821 0.0138184 0.0207499 0.00075 
213 1 0.0209866 0.0121785 0.0205 0.0005 
214 1 0.0234991 0.0131142 0.0205 0.0005 
215 1 0.02139 0.013264 0.0205 0.0005 
216 1 0.0218679 0.0095931 0.0207499 0.00075 
217 1 0.0171562 0.0115885 0.021269 0.0005 
218 1 0.0211561 0.012364 0.021827 0.00075 
219 1 0.0231605 0.0131716 0.0215769 0.0005 
221 1 0.0235 0.0122351 0.0214899 0.0005 
324 1 0.019296 0.0131264 0.0204999 0.0005 
1626 1 0.0194387 0.0115173 0.02125 0.00125 
1691 1 0.0230455 0.00911852 0.0215514 0.00075 
1684 1 0.0216912 0.0105363 0.0218507 0.0005 
1915 1 0.0235 0.00795946 0.02144 0.0005 
220 1 0.0202177 0.0131082 0.0214692 0.0005 
2005 1 0.0206388 0.00991955 0.0215453 0.00075 
1851 1 0.0193288 0.0073467 0.022382 0.001 
1835 1 0.0178678 0.0121463 0.0216963 0.0005 
2211 1 0.0182089 0.0133387 0.0219259 0.0005 
1968 1 0.0192209 0.013624 0.0213638 0.0005 
328 1 0.0190285 0.0140906 0.0205 0.0005 
2149 1 0.0195107 0.00997857 0.0220802 0.0005 
326 1 0.02056 0.0138216 0.0205 0.0005 
330 1 0.017121 0.0138555 0.0204999 0.0005 
329 1 0.0176335 0.0139281 0.0213555 0.0005 
2289 1 0.0208018 0.0109708 0.0222016 0.0005 
332 1 0.0234999 0.0140992 0.0214193 0.0005 
2213 1 0.0225582 0.0121272 0.0223046 0.00075 
1960 1 0.0194705 0.013101 0.0224712 0.00075 
2507 1 0.0229485 0.0135142 0.0224921 0.0005 
117 1 0.00372831 0.0144433 0.0205 0.0005 
223 1 0.00448319 0.0150995 0.0205 0.0005 
224 1 0.00294637 0.0150667 0.0205 0.0005 
225 1 0.00222766 0.0161062 0.0205 0.0005 
226 1 0.00603687 0.0153991 0.0212496 0.00125 
227 1 0.00148791 0.0154333 0.0204999 0.0005 
228 1 0.00050507 0.0149714 0.0205 0.0005 
229 1 0.000500007 0.0159726 0.0205 0.0005 
230 1 0.00450676 0.0171716 0.0205 0.0005 
231 1 0.0028306 0.0173258 0.0205 0.0005 
232 1 0.0012499 0.0173647 0.0212499 0.00125 
233 1 0.00648272 0.0170173 0.0205 0.0005 
234 1 0.00530918 0.0180968 0.0207499 0.00075 
235 1 0.000500191 0.0188204 0.0205 0.0005 
236 1 0.00344211 0.0162646 0.0207499 0.00075 
237 1 0.0054885 0.0168835 0.0205 0.0005 
238 1 0.00429876 0.015584 0.0213551 0.0005 
239 1 0.00466422 0.0161842 0.0205 0.0005 
240 1 0.00253791 0.018282 0.0205 0.0005 
241 1 0.000869057 0.015474 0.0212843 0.0005 
242 1 0.0004999 0.0198546 0.0215582 0.0005 
243 1 0.00341653 0.0187595 0.0205 0.0005 
244 1 0.00436645 0.0190719 0.0204999 0.0005 
245 1 0.00595857 0.017201 0.0213316 0.0005 
246 1 0.00324698 0.019745 0.0204999 0.0005 
247 1 0.0018512 0.0195183 0.0209999 0.001 
248 1 0.00466205 0.0189692 0.0214496 0.0005 
249 1 0.00711393 0.0200069 0.0205 0.0005 
250 1 0.00373974 0.0178132 0.0205 0.0005 
256 1 0.00721701 0.0184284 0.0212499 0.00125 
255 1 0.00740682 0.0164779 0.0222354 0.00075 
392 1 0.00564485 0.0195588 0.0207499 0.00075 
443 1 0.00433973 0.0202978 0.0207499 0.00075 
1846 1 0.00346523 0.0192767 0.021638 0.00075 
393 1 0.00300039 0.0207202 0.0205 0.0005 
1615 1 0.00490085 0.0167292 0.0213057 0.0005 
259 1 0.00760742 0.0165318 0.0207499 0.00075 
395 1 0.000501339 0.020015 0.0205 0.0005 
1616 1 0.00383346 0.014203 0.0219825 0.001 
1802 1 0.00536572 0.0205878 0.0214023 0.0005 
411 1 0.000499941 0.0210217 0.0204999 0.0005 
390 1 0.0065975 0.0203674 0.0215797 0.00075 
444 1 0.00349937 0.0205264 0.0216601 0.0005 
1636 1 0.00236103 0.0207631 0.0221192 0.00075 
432 1 0.0060846 0.020745 0.0205 0.0005 
261 1 0.00761517 0.015303 0.0204999 0.0005 
1804 1 0.0031686 0.0177976 0.0216117 0.00075 
2055 1 0.00438224 0.017578 0.0214087 0.0005 
1908 1 0.00393982 0.0166151 0.0221207 0.00075 
391 1 0.00711796 0.0210122 0.0205 0.0005 
1784 1 0.00550862 0.0168129 0.0221359 0.0005 
146 1 0.00734871 0.0143241 0.0205 0.0005 
2106 1 0.00049998 0.0150735 0.022123 0.0005 
2329 1 0.000925914 0.0207368 0.0213585 0.0005 
1766 1 0.00741702 0.0149983 0.0222482 0.0005 
2215 1 0.00229133 0.0185624 0.0220688 0.0005 
2087 1 0.00560334 0.0179183 0.0219516 0.0005 
1971 1 0.00246826 0.0156617 0.0220729 0.001 
302 1 0.00776941 0.015519 0.0214643 0.0005 
2561 1 0.00463028 0.0182342 0.0221268 0.0005 
2113 1 0.00641029 0.0172325 0.0222406 0.0005 
1697 1 0.00782517 0.0144796 0.0213655 0.0005 
1847 1 0.00251595 0.0171172 0.0224324 0.0005 
396 1 0.00188966 0.0212498 0.0207499 0.00075 
252 1 0.0120234 0.0141875 0.0204999 0.0005 
161 1 0.00926027 0.0142658 0.0204998 0.0005 
1855 1 0.0111336 0.0142051 0.0209558 0.0005 
254 1 0.012894 0.0147137 0.0205 0.0005 
257 1 0.0120839 0.0148103 0.0215819 0.00075 
258 1 0.0114781 0.0150257 0.0205 0.0005 
262 1 0.0138986 0.0145238 0.0205 0.0005 
263 1 0.0123312 0.0155474 0.0204999 0.0005 
264 1 0.010155 0.0184942 0.0205 0.0005 
265 1 0.00936615 0.0191086 0.0204999 0.0005 
267 1 0.013798 0.0161378 0.0212499 0.00125 
268 1 0.0113965 0.018067 0.0204996 0.0005 
269 1 0.00988938 0.0150435 0.0205 0.0005 
270 1 0.0122341 0.0191667 0.0207499 0.00075 
271 1 0.0122716 0.0165502 0.0205 0.0005 
272 1 0.0151949 0.0189411 0.0204999 0.0005 
273 1 0.0104312 0.015884 0.0205 0.0005 
274 1 0.0110212 0.0189937 0.0205 0.0005 
275 1 0.0101539 0.0197246 0.0205 0.0005 
276 1 0.0133778 0.0203613 0.0212939 0.0005 
277 1 0.0112958 0.0199551 0.0204999 0.0005 
278 1 0.0122933 0.0206655 0.02075 0.00075 
280 1 0.011415 0.0170662 0.0205 0.0005 
281 1 0.0125165 0.0177027 0.0209175 0.00075 
282 1 0.0133071 0.0197575 0.0205 0.0005 
283 1 0.0136944 0.0177154 0.0204999 0.0005 
284 1 0.0134594 0.0186974 0.0205 0.0005 
285 1 0.0142265 0.0193397 0.0204999 0.0005 
286 1 0.0143993 0.0183838 0.0207369 0.0005 
287 1 0.0132286 0.0189931 0.0218592 0.00075 
288 1 0.0120529 0.0160338 0.0213281 0.0005 
289 1 0.0150839 0.0199348 0.0205 0.0005 
290 1 0.0146853 0.0174469 0.0205 0.0005 
291 1 0.00915278 0.0181316 0.0205 0.0005 
292 1 0.010399 0.0172561 0.0204999 0.0005 
293 1 0.0148305 0.0204427 0.0213233 0.0005 
294 1 0.014161 0.0203377 0.0205 0.0005 
295 1 0.00844144 0.0174284 0.0204999 0.0005 
296 1 0.015683 0.0175422 0.0204999 0.0005 
297 1 0.00884869 0.0156892 0.02075 0.00075 
298 1 0.0109497 0.0175984 0.0212611 0.0005 
300 1 0.0107981 0.0165791 0.0211182 0.0005 
301 1 0.0114213 0.0160241 0.0205 0.0005 
303 1 0.0123883 0.0199115 0.0217426 0.0005 
304 1 0.00981046 0.0164347 0.021058 0.0005 
305 1 0.0136668 0.0178831 0.0214867 0.0005 
306 1 0.0149421 0.0150464 0.0205 0.0005 
307 1 0.00992321 0.0154983 0.0213899 0.0005 
308 1 0.0116836 0.0169521 0.02147 0.0005 
309 1 0.0124702 0.0208824 0.0219682 0.0005 
310 1 0.0120131 0.0160307 0.0223272 0.0005 
311 1 0.00940398 0.017158 0.0204999 0.0005 
312 1 0.00984354 0.0177901 0.021138 0.0005 
314 1 0.0111712 0.0159394 0.0217901 0.0005 
315 1 0.0102748 0.0191096 0.0218629 0.001 
316 1 0.0153049 0.0166165 0.0204999 0.0005 
317 1 0.0160015 0.019532 0.0204999 0.0005 
319 1 0.0108354 0.0151093 0.0212615 0.0005 
320 1 0.0157185 0.0157061 0.0204999 0.0005 
321 1 0.00894607 0.0186921 0.021306 0.0005 
322 1 0.0141436 0.0197225 0.02142 0.0005 
323 1 0.00864479 0.0167246 0.02142 0.0005 
331 1 0.0158602 0.0163938 0.0213011 0.0005 
1603 1 0.00831353 0.0145873 0.0204998 0.0005 
1637 1 0.00887325 0.0176963 0.021361 0.0005 
1721 1 0.0154196 0.015506 0.0214329 0.0005 
461 1 0.00861612 0.0205005 0.0212498 0.00125 
318 1 0.0115239 0.0183986 0.0214342 0.0005 
313 1 0.0113362 0.0202674 0.021449 0.0005 
279 1 0.014921 0.0210024 0.0204998 0.0005 
2191 1 0.0133521 0.0146654 0.0220839 0.0005 
465 1 0.0105118 0.0208958 0.0207499 0.00075 
1997 1 0.013315 0.0174416 0.0223125 0.0005 
458 1 0.0102246 0.0206073 0.0219317 0.0005 
2002 1 0.00885827 0.0182458 0.0221965 0.0005 
1886 1 0.0110448 0.020277 0.0224055 0.0005 
2180 1 0.0119927 0.0190423 0.022039 0.0005 
2218 1 0.0149787 0.0206541 0.0222892 0.0005 
2526 1 0.0110571 0.0150589 0.02225 0.0005 
2353 1 0.012122 0.0178115 0.0223614 0.00075 
2041 1 0.00869628 0.0156563 0.0222916 0.00075 
2457 1 0.0173813 0.0144157 0.0221913 0.0005 
1729 1 0.0218011 0.0163467 0.0219123 0.0005 
327 1 0.0235001 0.014499 0.0205 0.0005 
333 1 0.0180409 0.0142476 0.0205 0.0005 
334 1 0.0215298 0.0145911 0.0205 0.0005 
336 1 0.022609 0.0150389 0.0205 0.0005 
337 1 0.0170637 0.0152698 0.0209999 0.001 
338 1 0.0184699 0.0154192 0.0204999 0.0005 
339 1 0.0194076 0.0150479 0.0205 0.0005 
340 1 0.018659 0.0172032 0.0212307 0.0005 
341 1 0.0180228 0.0163138 0.0205 0.0005 
342 1 0.0174704 0.0181909 0.0205 0.0005 
343 1 0.0222472 0.0162353 0.02075 0.00075 
344 1 0.0179887 0.0173312 0.0204999 0.0005 
345 1 0.0193451 0.0162758 0.0207499 0.00075 
346 1 0.0235001 0.0174986 0.0205 0.0005 
347 1 0.0223092 0.017784 0.0207501 0.00075 
348 1 0.0212261 0.0155589 0.0205 0.0005 
349 1 0.0202661 0.0174143 0.0204999 0.0005 
350 1 0.0184705 0.0182074 0.0205 0.0005 
351 1 0.0192704 0.0175065 0.0204999 0.0005 
352 1 0.0235001 0.0184985 0.0204999 0.0005 
353 1 0.0200895 0.0176251 0.0217193 0.00075 
354 1 0.0168144 0.0169838 0.02075 0.00075 
355 1 0.0209397 0.0184404 0.0207499 0.00075 
356 1 0.0212399 0.0171872 0.0204999 0.0005 
357 1 0.0197157 0.0184018 0.0205 0.0005 
358 1 0.0234987 0.0154988 0.0205 0.0005 
359 1 0.0205506 0.0148215 0.0205 0.0005 
360 1 0.0190784 0.0182243 0.0212938 0.0005 
361 1 0.0203543 0.019822 0.02075 0.00075 
362 1 0.0189311 0.0193422 0.0207499 0.00075 
363 1 0.0235 0.0164987 0.0204999 0.0005 
364 1 0.0224805 0.0198984 0.0215 0.0015 
366 1 0.0205563 0.0164573 0.0205 0.0005 
367 1 0.0232236 0.0169609 0.0216278 0.00075 
368 1 0.017786 0.0189529 0.0210654 0.0005 
369 1 0.0235 0.0181658 0.0214429 0.0005 
370 1 0.0199237 0.0188313 0.0213787 0.0005 
371 1 0.0176329 0.0177068 0.0213598 0.0005 
373 1 0.0180391 0.0201968 0.0212076 0.0005 
374 1 0.0174683 0.0197805 0.0205 0.0005 
376 1 0.0164709 0.0181593 0.0204999 0.0005 
377 1 0.0231112 0.0154445 0.0216871 0.00075 
378 1 0.020665 0.0207441 0.0215346 0.0005 
379 1 0.0168374 0.0190512 0.0207647 0.0005 
380 1 0.0210513 0.0166788 0.0213402 0.0005 
381 1 0.0207762 0.0189233 0.0218933 0.0005 
382 1 0.0234952 0.0183284 0.0224295 0.0005 
383 1 0.0203792 0.01564 0.0210481 0.0005 
385 1 0.0178296 0.016675 0.0214122 0.0005 
386 1 0.0198572 0.0143148 0.0210126 0.0005 
388 1 0.0201628 0.0163763 0.0216899 0.0005 
1830 1 0.0215244 0.0179319 0.0220342 0.00075 
1972 1 0.0188322 0.0149752 0.0218861 0.001 
526 1 0.0190048 0.0208451 0.0207499 0.00075 
375 1 0.0165018 0.0210319 0.0212498 0.00125 
1906 1 0.0170305 0.0164233 0.0219582 0.0005 
2136 1 0.0235 0.0144602 0.0223522 0.0005 
527 1 0.0211533 0.0210122 0.0205 0.0005 
2036 1 0.016148 0.0156536 0.0224408 0.00075 
1866 1 0.0212184 0.0145177 0.0224749 0.0015 
394 1 0.00523701 0.0213788 0.0205 0.0005 
397 1 0.00510811 0.02521 0.0205 0.0005 
398 1 0.00582294 0.0241567 0.0207499 0.00075 
399 1 0.00456942 0.0226787 0.0209999 0.001 
400 1 0.000749872 0.0222249 0.0207497 0.00075 
401 1 0.00114221 0.0253831 0.021367 0.0005 
402 1 0.000501561 0.0244236 0.0205 0.0005 
403 1 0.000499957 0.0254235 0.0205 0.0005 
404 1 0.00772529 0.0218069 0.0205 0.0005 
405 1 0.00251475 0.024802 0.0204999 0.0005 
406 1 0.005175 0.0262093 0.0205 0.0005 
407 1 0.0033258 0.0238842 0.0207499 0.00075 
408 1 0.000499877 0.0234237 0.0204999 0.0005 
409 1 0.0066478 0.0254094 0.02075 0.00075 
410 1 0.00355889 0.0216894 0.0205 0.0005 
412 1 0.00167185 0.0238723 0.0213214 0.001 
413 1 0.00632537 0.0219459 0.02075 0.00075 
415 1 0.00656892 0.0266315 0.0204999 0.0005 
416 1 0.0022796 0.0258762 0.0212068 0.00075 
417 1 0.00753164 0.0263612 0.0204999 0.0005 
418 1 0.00421493 0.0259299 0.0205 0.0005 
419 1 0.00050008 0.0247117 0.0217368 0.0005 
420 1 0.00673961 0.0276166 0.0204999 0.0005 
421 1 0.00459993 0.0240925 0.0204999 0.0005 
422 1 0.000500001 0.0230089 0.0216906 0.0005 
423 1 0.000500026 0.0261329 0.0212069 0.0005 
424 1 0.00156788 0.0251236 0.0205 0.0005 
426 1 0.00265809 0.0225394 0.02075 0.00075 
427 1 0.00691139 0.0263159 0.0219156 0.00075 
428 1 0.00125672 0.0260771 0.0205 0.0005 
429 1 0.00407001 0.0249405 0.0204996 0.0005 
430 1 0.00323696 0.0254935 0.0205 0.0005 
431 1 0.00590308 0.026318 0.0211768 0.0005 
433 1 0.00147987 0.0270519 0.0205 0.0005 
434 1 0.00355322 0.0269899 0.0213447 0.0005 
435 1 0.00338182 0.0264829 0.0205 0.0005 
436 1 0.0061117 0.0230612 0.0217329 0.00075 
437 1 0.00049999 0.0270851 0.0215177 0.0005 
438 1 0.000500014 0.0268403 0.0205 0.0005 
439 1 0.00121493 0.0262587 0.0222605 0.00075 
440 1 0.00449162 0.0267683 0.0209695 0.0005 
442 1 0.00657252 0.0274332 0.0214687 0.0005 
445 1 0.00552877 0.0274315 0.0207499 0.00075 
446 1 0.00652622 0.023154 0.0205 0.0005 
447 1 0.000499978 0.0277995 0.0224734 0.0005 
450 1 0.00333287 0.0274816 0.0205 0.0005 
453 1 0.00704743 0.0241295 0.0205 0.0005 
454 1 0.00432105 0.0276346 0.0204999 0.0005 
455 1 0.0074596 0.0271601 0.0210968 0.0005 
456 1 0.00299443 0.0214636 0.021294 0.0005 
594 1 0.00246661 0.0268898 0.0204998 0.0005 
629 1 0.00268123 0.026832 0.0219055 0.0005 
1594 1 0.00765352 0.0242671 0.0221432 0.00125 
522 1 0.00744862 0.0227679 0.0205 0.0005 
463 1 0.00774395 0.0248632 0.0205 0.0005 
1824 1 0.00543059 0.021576 0.0215405 0.0005 
615 1 0.00264372 0.0275598 0.0212203 0.0005 
1857 1 0.00109798 0.021623 0.021788 0.0005 
1939 1 0.00572451 0.0272758 0.0219746 0.0005 
1917 1 0.00398549 0.0213401 0.0213415 0.0005 
605 1 0.00443293 0.027789 0.0217351 0.00075 
606 1 0.00161244 0.0276641 0.0219188 0.00075 
579 1 0.00768958 0.0279288 0.0205 0.0005 
2076 1 0.00192141 0.0251118 0.0221285 0.0005 
2088 1 0.0016983 0.0223896 0.0215472 0.0005 
2129 1 0.00253632 0.0220427 0.0219682 0.0005 
589 1 0.00203267 0.0278882 0.0205 0.0005 
1819 1 0.00545876 0.0281677 0.0223406 0.0005 
451 1 0.000750538 0.0280392 0.0207499 0.00075 
1765 1 0.00307145 0.0282299 0.0221847 0.00075 
2604 1 0.00348771 0.0225342 0.022029 0.0005 
2530 1 0.00262213 0.0230277 0.0221173 0.0005 
513 1 0.00787976 0.0256992 0.0211634 0.0005 
459 1 0.0138206 0.0212779 0.0205 0.0005 
448 1 0.00817279 0.0239582 0.0205 0.0005 
457 1 0.0148915 0.021495 0.021755 0.0005 
460 1 0.0140529 0.0227061 0.0217296 0.0005 
462 1 0.00986908 0.0217052 0.0214528 0.0005 
464 1 0.00839733 0.0272224 0.0205 0.0005 
466 1 0.0088621 0.0227231 0.0209999 0.001 
467 1 0.00893112 0.0251641 0.02075 0.00075 
468 1 0.0103793 0.0236345 0.0215495 0.00075 
469 1 0.00953896 0.0266815 0.0205 0.0005 
470 1 0.00939985 0.0240312 0.0205 0.0005 
471 1 0.0128705 0.0242439 0.0205 0.0005 
473 1 0.0130565 0.0252265 0.0205 0.0005 
474 1 0.0139696 0.0239278 0.0204999 0.0005 
475 1 0.0117454 0.0229268 0.0205 0.0005 
476 1 0.0127882 0.0217858 0.0205 0.0005 
477 1 0.0111642 0.0245233 0.0211511 0.0005 
478 1 0.0110575 0.0236525 0.0204999 0.0005 
479 1 0.0133708 0.0216668 0.0215995 0.00075 
480 1 0.011278 0.0263739 0.0205 0.0005 
481 1 0.0123192 0.0249033 0.0214567 0.00075 
482 1 0.0140538 0.0249571 0.021204 0.00075 
483 1 0.011806 0.0255243 0.0205 0.0005 
484 1 0.0118683 0.0242375 0.0204999 0.0005 
485 1 0.0122522 0.0235404 0.0211054 0.0005 
486 1 0.0150582 0.0252012 0.0205 0.0005 
487 1 0.0106431 0.0223902 0.0207499 0.00075 
488 1 0.0152633 0.0232472 0.0205 0.0005 
489 1 0.0103459 0.0243553 0.0205 0.0005 
490 1 0.0133015 0.0229014 0.0207499 0.00075 
491 1 0.0142578 0.0259692 0.0204997 0.0005 
492 1 0.0108546 0.0252162 0.0205 0.0005 
493 1 0.0104718 0.027055 0.0205 0.0005 
494 1 0.0142999 0.0259599 0.0219089 0.0005 
495 1 0.0129139 0.0268015 0.0212501 0.00125 
496 1 0.0149491 0.0242072 0.0205 0.0005 
497 1 0.0149291 0.0267103 0.0204999 0.0005 
498 1 0.0149869 0.0259291 0.0211824 0.0005 
499 1 0.0146518 0.0268407 0.0214518 0.0005 
501 1 0.0146351 0.0221931 0.0207497 0.00075 
502 1 0.0145044 0.0233746 0.0211386 0.0005 
503 1 0.0157358 0.0247323 0.0210665 0.0005 
504 1 0.0122516 0.0223425 0.0211341 0.0005 
505 1 0.0103268 0.0260656 0.0205 0.0005 
506 1 0.0155188 0.0273056 0.0212702 0.0005 
507 1 0.0112195 0.0277036 0.0214143 0.0005 
508 1 0.0131139 0.0239392 0.0214208 0.0005 
509 1 0.0114626 0.0230179 0.0214548 0.0005 
510 1 0.0086955 0.0263765 0.0209422 0.0005 
511 1 0.0154622 0.0264519 0.0218899 0.0005 
512 1 0.00928478 0.024237 0.0215101 0.0005 
514 1 0.0117334 0.0217546 0.0204999 0.0005 
516 1 0.0154918 0.0228384 0.0221322 0.001 
517 1 0.0114354 0.0273613 0.0204999 0.0005 
518 1 0.00932327 0.027658 0.0205 0.0005 
519 1 0.0145307 0.0278684 0.0207499 0.00075 
520 1 0.0149397 0.0276064 0.0220279 0.0005 
523 1 0.0150636 0.0241252 0.0214905 0.0005 
1723 1 0.0114565 0.0215644 0.021704 0.00075 
1708 1 0.00848921 0.0280208 0.0217667 0.001 
1749 1 0.0142878 0.0219808 0.0223886 0.0005 
1978 1 0.00814695 0.0264442 0.0217756 0.0005 
525 1 0.0159399 0.0225101 0.0205 0.0005 
1837 1 0.015261 0.0251753 0.0221408 0.00075 
521 1 0.0100551 0.0276703 0.0211813 0.0005 
1895 1 0.0140703 0.0238551 0.0222212 0.00075 