ITEM: TIMESTEP
260000
ITEM: NUMBER OF ATOMS
2255
ITEM: BOX BOUNDS mm mm mm
-2.4e-06 0.0240024
-7.8e-06 0.0780078
-3e-06 0.030003
ITEM: ATOMS id type x y z radius 
324 1 0.00789831 0.00402308 0.0219986 0.002 
291 1 0.00284413 0.00150798 0.0214993 0.0015 
368 1 0.000500101 0.00150104 0.0205 0.0005 
784 1 0.00549587 0.00326415 0.02075 0.00075 
32 1 0.00525356 0.000499997 0.0205 0.0005 
241 1 0.00460255 0.00241867 0.0205 0.0005 
815 1 0.00123791 0.00217616 0.0205 0.0005 
448 1 0.00377573 0.00298686 0.0205 0.0005 
300 1 0.000529314 0.000500688 0.0205 0.0005 
442 1 0.00102124 0.00357565 0.0209998 0.001 
816 1 0.00591153 0.00495388 0.0205 0.0005 
710 1 0.00425357 0.00050026 0.0205 0.0005 
527 1 0.000499628 0.00494229 0.0204998 0.0005 
256 1 0.00063097 0.00619548 0.0205 0.0005 
870 1 0.00767376 0.00601181 0.0205 0.0005 
100 1 0.00461067 0.00265093 0.0214726 0.0005 
153 1 0.00492103 0.00147074 0.0205 0.0005 
486 1 0.00360442 0.00510258 0.0222491 0.00225 
722 1 0.00148328 0.00511975 0.0204997 0.0005 
864 1 0.00476781 0.000883655 0.0212949 0.0005 
503 1 0.000499981 0.00489084 0.0214984 0.0005 
561 1 0.00611463 0.00175374 0.02075 0.00075 
501 1 0.00571741 0.000503042 0.0213859 0.0005 
64 1 0.00630226 0.00641764 0.0209999 0.001 
954 1 0.00628308 0.000503438 0.0205 0.0005 
274 1 0.00758721 0.00700926 0.0205 0.0005 
75 1 0.00171336 0.00688486 0.0207499 0.00075 
390 1 0.000499998 0.00588962 0.021443 0.0005 
887 1 0.00657978 0.0069452 0.0223764 0.0005 
380 1 0.00495547 0.00684923 0.0205 0.0005 
587 1 0.000499896 0.00397983 0.0223469 0.0005 
370 1 0.00749582 0.000881537 0.0207494 0.00075 
28 1 0.000749337 0.000749586 0.0218083 0.00075 
842 1 0.00624646 0.00585822 0.0223905 0.0005 
220 1 0.00721703 0.000749608 0.0222166 0.00075 
1492 1 0.000499939 0.00496859 0.0224952 0.0005 
1195 1 0.00819991 0.00159205 0.0214989 0.0005 
121 1 0.00866602 0.00613646 0.0205 0.0005 
228 1 0.00936154 0.00541279 0.0205 0.0005 
490 1 0.00999781 0.00463665 0.0205 0.0005 
199 1 0.0118372 0.00326904 0.0205 0.0005 
395 1 0.010887 0.00295692 0.0205 0.0005 
474 1 0.0138709 0.00187019 0.0207499 0.00075 
282 1 0.0103871 0.00136639 0.0205 0.0005 
590 1 0.00988198 0.000499917 0.0204998 0.0005 
176 1 0.0132018 0.000500192 0.0205 0.0005 
289 1 0.0108862 0.000499942 0.0205 0.0005 
362 1 0.00888203 0.000499999 0.0205 0.0005 
783 1 0.0111137 0.00401997 0.0204997 0.0005 
51 1 0.012814 0.00305512 0.0205 0.0005 
233 1 0.00976648 0.00242232 0.02075 0.00075 
217 1 0.0109196 0.00502527 0.0204999 0.0005 
636 1 0.0120514 0.00689899 0.0205 0.0005 
549 1 0.0102004 0.00484138 0.0214648 0.0005 
126 1 0.0126417 0.00483492 0.0214994 0.0015 
307 1 0.00804408 0.00197684 0.0205 0.0005 
676 1 0.010193 0.000806555 0.0216708 0.00075 
209 1 0.0138079 0.00611931 0.0205 0.0005 
730 1 0.00899364 0.00144048 0.0208284 0.0005 
764 1 0.0105068 0.00655152 0.0212496 0.00125 
311 1 0.0146981 0.00666459 0.0215779 0.001 
763 1 0.0098754 0.0036423 0.0205 0.0005 
66 1 0.0143715 0.00489187 0.0204991 0.0005 
61 1 0.014999 0.00566906 0.0204988 0.0005 
108 1 0.0149997 0.00344288 0.0212506 0.00125 
581 1 0.0126452 0.00699564 0.0221183 0.00075 
89 1 0.00848165 0.000499932 0.0214162 0.0005 
155 1 0.0119442 0.00167552 0.0212497 0.00125 
178 1 0.0149434 0.000749941 0.0207499 0.00075 
364 1 0.0105968 0.00366103 0.0215796 0.00075 
895 1 0.011215 0.000500104 0.022322 0.0005 
598 1 0.0129206 0.000500349 0.0221028 0.0005 
161 1 0.0232501 0.000749635 0.0207496 0.00075 
159 1 0.0227925 0.00337602 0.0204992 0.0005 
204 1 0.0235 0.00480339 0.0205 0.0005 
219 1 0.0215263 0.00100006 0.0209999 0.001 
333 1 0.0232505 0.00395229 0.0215084 0.00075 
142 1 0.0232502 0.00224882 0.0207843 0.00075 
200 1 0.0202336 0.00273568 0.0207494 0.00075 
340 1 0.021721 0.00449907 0.0207501 0.00075 
452 1 0.0235003 0.00580318 0.0204998 0.0005 
518 1 0.0189221 0.00075004 0.02075 0.00075 
185 1 0.0165571 0.00540974 0.0212499 0.00125 
31 1 0.016928 0.00149913 0.0214996 0.0015 
123 1 0.0229069 0.000999613 0.0224468 0.001 
273 1 0.0217915 0.00292893 0.0215219 0.001 
113 1 0.0170802 0.00322907 0.0205 0.0005 
544 1 0.0186194 0.00434398 0.0210002 0.001 
577 1 0.0232499 0.00543978 0.0216991 0.00075 
652 1 0.0183502 0.00580675 0.0214635 0.0005 
290 1 0.018735 0.00261452 0.02075 0.00075 
281 1 0.0201597 0.00386892 0.0217288 0.00075 
190 1 0.0176053 0.00703781 0.0207501 0.00075 
57 1 0.0203282 0.006101 0.0215035 0.0015 
143 1 0.0223873 0.00552623 0.0205 0.0005 
853 1 0.0180846 0.00583768 0.0205 0.0005 
106 1 0.022045 0.00511535 0.0217883 0.0005 
1012 1 0.0183388 0.00699056 0.0220638 0.00075 
109 1 0.0188275 0.00696129 0.0204999 0.0005 
6 1 0.0226354 0.00692147 0.0209998 0.001 
998 1 0.000749926 0.00708685 0.0218816 0.00075 
1359 1 0.00301293 0.00717844 0.0205 0.0005 
588 1 0.00401348 0.0071862 0.0205 0.0005 
360 1 0.00670725 0.0121711 0.0205 0.0005 
154 1 0.00485054 0.00808027 0.02075 0.00075 
13 1 0.000499997 0.00718686 0.0205 0.0005 
879 1 0.00604489 0.00780917 0.0205 0.0005 
137 1 0.000565728 0.00818469 0.0205 0.0005 
44 1 0.00525694 0.00952445 0.02075 0.00075 
401 1 0.00602513 0.0112642 0.0218322 0.00125 
1166 1 0.00573074 0.00777184 0.0219496 0.00075 
1234 1 0.00601561 0.0089164 0.0215357 0.0005 
323 1 0.00249798 0.00920805 0.0219994 0.002 
820 1 0.000499539 0.0092671 0.0204996 0.0005 
1067 1 0.00786223 0.0126772 0.0205 0.0005 
713 1 0.00235484 0.0112033 0.0205 0.0005 
881 1 0.000520726 0.0102705 0.0205 0.0005 
943 1 0.00334126 0.0113684 0.0205 0.0005 
673 1 0.00440306 0.0107576 0.02075 0.00075 
174 1 0.00100149 0.011614 0.0209999 0.001 
447 1 0.00624251 0.00879833 0.0205 0.0005 
1070 1 0.00769538 0.0071122 0.0217997 0.00075 
737 1 0.00534776 0.0127017 0.0205 0.0005 
646 1 0.00128693 0.0140532 0.0205 0.0005 
508 1 0.000542659 0.0133262 0.0205 0.0005 
872 1 0.00770273 0.0114577 0.0207499 0.00075 
439 1 0.00669847 0.0137515 0.0212521 0.00125 
891 1 0.00704408 0.00784941 0.0205 0.0005 
427 1 0.00448147 0.00768585 0.0218777 0.0005 
1190 1 0.00502766 0.00880968 0.0217495 0.0005 
479 1 0.000500218 0.0129598 0.0214331 0.0005 
911 1 0.00431555 0.0109243 0.021986 0.0005 
296 1 0.00335536 0.0134899 0.0222499 0.00225 
521 1 0.000553788 0.0136771 0.0222112 0.0005 
35 1 0.0079751 0.00935405 0.0214997 0.0015 
196 1 0.000501193 0.0141188 0.0213103 0.0005 
611 1 0.00826913 0.0136246 0.0204971 0.0005 
171 1 0.0132306 0.00723136 0.02075 0.00075 
275 1 0.0144037 0.00817661 0.0207495 0.00075 
46 1 0.00875462 0.00737969 0.02075 0.00075 
556 1 0.013876 0.00958004 0.0207498 0.00075 
287 1 0.0110932 0.0106122 0.0205 0.0005 
865 1 0.0135493 0.0119305 0.0204999 0.0005 
756 1 0.0118326 0.00899742 0.0214968 0.0015 
318 1 0.0140419 0.00880162 0.0220663 0.00075 
686 1 0.0096424 0.00888357 0.0205 0.0005 
10 1 0.0155857 0.00850946 0.0205 0.0005 
569 1 0.0127943 0.0106734 0.0205 0.0005 
252 1 0.00898985 0.0107909 0.0204994 0.0005 
188 1 0.0150195 0.012795 0.0215444 0.0015 
772 1 0.0125567 0.0118076 0.0204999 0.0005 
709 1 0.00998843 0.0100601 0.02075 0.00075 
1061 1 0.0115917 0.011483 0.0205007 0.0005 
110 1 0.0133537 0.013159 0.0204997 0.0005 
1118 1 0.00996553 0.00972886 0.021955 0.0005 
59 1 0.0118843 0.0130929 0.0205031 0.0005 
974 1 0.011568 0.0140715 0.0205 0.0005 
734 1 0.012661 0.0126567 0.0214105 0.00075 
968 1 0.0122713 0.0112022 0.0215557 0.00075 
62 1 0.00991576 0.0125379 0.0220276 0.002 
1238 1 0.00970535 0.00810181 0.0211205 0.0005 
1028 1 0.0137291 0.0109691 0.0212951 0.00075 
1653 1 0.0151617 0.00882828 0.0215098 0.0005 
80 1 0.0154011 0.0103209 0.0212349 0.001 
810 1 0.00991938 0.00817668 0.0223525 0.00075 
1056 1 0.0158768 0.0111869 0.0223672 0.0005 
714 1 0.0160636 0.0114473 0.0204995 0.0005 
1922 1 0.0160297 0.00832818 0.0215006 0.0005 
192 1 0.0160909 0.00732723 0.02075 0.00075 
1846 1 0.0162093 0.00929348 0.0204998 0.0005 
342 1 0.0170359 0.0121916 0.020749 0.00075 
319 1 0.0212846 0.00755097 0.0205 0.0005 
293 1 0.0188696 0.0108367 0.0217741 0.00175 
735 1 0.0210161 0.00974722 0.0213632 0.0005 
308 1 0.020179 0.0085457 0.0209995 0.001 
49 1 0.0174735 0.00961612 0.0205 0.0005 
146 1 0.0188923 0.00795909 0.0204999 0.0005 
578 1 0.0226868 0.00892057 0.0210024 0.001 
139 1 0.0171903 0.0139169 0.0210166 0.001 
90 1 0.0183663 0.00839788 0.0215454 0.00075 
71 1 0.0213411 0.00935093 0.0204997 0.0005 
659 1 0.0170951 0.00844815 0.02075 0.00075 
967 1 0.0168724 0.0104938 0.0205 0.0005 
130 1 0.0213999 0.0118141 0.0204994 0.0005 
41 1 0.0218536 0.0104628 0.0207501 0.00075 
231 1 0.0234992 0.0100779 0.0205003 0.0005 
279 1 0.023498 0.00789931 0.0217447 0.0005 
693 1 0.0214611 0.00774853 0.0214651 0.0005 
725 1 0.0232492 0.0111681 0.021061 0.00075 
697 1 0.0205326 0.00994717 0.0205 0.0005 
330 1 0.0227307 0.0125445 0.0207509 0.00075 
78 1 0.0225026 0.0137547 0.0205032 0.0005 
800 1 0.0207362 0.0110537 0.0205 0.0005 
538 1 0.0234973 0.012287 0.0217167 0.0005 
1236 1 0.0186473 0.01303 0.0213021 0.0005 
812 1 0.0220223 0.0115956 0.0212505 0.0005 
944 1 0.0234996 0.0133011 0.0213862 0.0005 
794 1 0.0178263 0.0128365 0.0218419 0.0005 
592 1 0.0180949 0.0128063 0.0204996 0.0005 
910 1 0.0214292 0.00875273 0.0222084 0.00075 
523 1 0.0186228 0.0136967 0.0205 0.0005 
956 1 0.0192274 0.0126712 0.0205217 0.0005 
350 1 0.0207967 0.013438 0.0214979 0.0015 
639 1 0.0227432 0.0139353 0.0215617 0.0005 
1899 1 0.0169022 0.00982276 0.0213021 0.0005 
1138 1 0.0232493 0.0101447 0.0221607 0.00075 
272 1 0.0234996 0.0138295 0.0205 0.0005 
1493 1 0.0187528 0.013496 0.0224714 0.00075 
770 1 0.0234996 0.0114567 0.0222785 0.0005 
782 1 0.000503334 0.0147696 0.0221326 0.0005 
70 1 0.000502055 0.0147048 0.0205 0.0005 
888 1 0.00290446 0.0159235 0.0205 0.0005 
550 1 0.000986666 0.0183733 0.0205 0.0005 
1 1 0.00733055 0.0155815 0.02075 0.00075 
529 1 0.00124997 0.0161007 0.0212498 0.00125 
269 1 0.00694624 0.0178158 0.0212629 0.00125 
19 1 0.00480318 0.0165242 0.0212499 0.00125 
1077 1 0.00637494 0.016348 0.0205001 0.0005 
877 1 0.00754458 0.0201618 0.0205 0.0005 
1060 1 0.00789412 0.0153262 0.0220301 0.0005 
1004 1 0.0054504 0.0190465 0.02075 0.00075 
1570 1 0.00773919 0.0191792 0.0205 0.0005 
688 1 0.000502269 0.0192914 0.0206875 0.0005 
896 1 0.00665743 0.0193645 0.0205001 0.0005 
1660 1 0.00467282 0.0181 0.0205 0.0005 
972 1 0.00618748 0.0154369 0.022199 0.00075 
223 1 0.00299398 0.018943 0.0217499 0.00175 
700 1 0.0043696 0.0207777 0.0207524 0.00075 
1416 1 0.00290667 0.0208543 0.0205 0.0005 
436 1 0.00751761 0.0162485 0.0217919 0.0005 
678 1 0.00100663 0.02069 0.0209989 0.001 
315 1 0.00301277 0.016469 0.0221394 0.00075 
600 1 0.00622394 0.0207322 0.0215026 0.00125 
576 1 0.000753328 0.0178716 0.0220355 0.00075 
1094 1 0.00534569 0.0183385 0.0223458 0.00075 
1859 1 0.00736731 0.0194297 0.0217908 0.0005 
1884 1 0.000500147 0.0193376 0.0217012 0.0005 
1144 1 0.00796903 0.0207563 0.0213245 0.0005 
1578 1 0.00297212 0.021211 0.0214621 0.0005 
1196 1 0.00827288 0.0171749 0.0222073 0.0005 
748 1 0.00805626 0.0142148 0.0223653 0.0005 
695 1 0.00855903 0.014741 0.0209759 0.00075 
54 1 0.00881702 0.0164708 0.0209998 0.001 
786 1 0.00912601 0.0149298 0.0220735 0.0005 
180 1 0.0098588 0.0190998 0.0219999 0.002 
221 1 0.0111939 0.015822 0.0215005 0.0015 
118 1 0.0139351 0.0153061 0.02125 0.00125 
717 1 0.0120631 0.0188153 0.0205 0.0005 
1232 1 0.00971523 0.0145262 0.020521 0.0005 
934 1 0.0133996 0.0190058 0.0208087 0.00075 
1310 1 0.0121341 0.0178178 0.0205 0.0005 
1212 1 0.0147411 0.0191472 0.0205087 0.0005 
838 1 0.0146163 0.0174404 0.0210108 0.001 
624 1 0.0129911 0.0168699 0.0205 0.0005 
1035 1 0.0111587 0.0175558 0.0205 0.0005 
1592 1 0.0120783 0.0198242 0.0205 0.0005 
1577 1 0.0148474 0.0202234 0.0205105 0.0005 
1636 1 0.0131551 0.0208341 0.0210036 0.001 
1757 1 0.014587 0.0195528 0.0214094 0.0005 
1842 1 0.01458 0.0205401 0.0215932 0.0005 
1697 1 0.00850658 0.0205751 0.0205 0.0005 
1350 1 0.0145929 0.0211984 0.0205 0.0005 
2033 1 0.0122768 0.0192577 0.0213709 0.0005 
1264 1 0.00998811 0.0210955 0.0204999 0.0005 
1338 1 0.0160263 0.0174563 0.0204998 0.0005 
1164 1 0.011411 0.0210035 0.02075 0.00075 
189 1 0.015355 0.0162218 0.0205001 0.0005 
2117 1 0.0156214 0.0147674 0.0214301 0.0005 
982 1 0.0157165 0.0207879 0.0205003 0.0005 
43 1 0.0160365 0.0147753 0.0205 0.0005 
1193 1 0.0186179 0.014428 0.0212246 0.0005 
198 1 0.0163105 0.019258 0.021292 0.00125 
345 1 0.0193077 0.0144273 0.0205001 0.0005 
741 1 0.0180448 0.015143 0.0216275 0.0005 
450 1 0.018113 0.015008 0.0205143 0.0005 
1311 1 0.0167287 0.0207617 0.0205003 0.0005 
947 1 0.0178572 0.0189963 0.0205 0.0005 
542 1 0.0187442 0.0162695 0.0223192 0.00075 
260 1 0.0177509 0.0175509 0.0210148 0.001 
591 1 0.0222806 0.0149823 0.0207901 0.00075 
465 1 0.0188942 0.0167084 0.0205037 0.0005 
719 1 0.0191184 0.015584 0.021012 0.00075 
628 1 0.0234963 0.0161609 0.0204999 0.0005 
42 1 0.0223952 0.0167102 0.0207508 0.00075 
747 1 0.021092 0.0152372 0.0205007 0.0005 
813 1 0.0202842 0.0160384 0.0205 0.0005 
787 1 0.0191506 0.0176955 0.0204994 0.0005 
492 1 0.0198637 0.0169962 0.020499 0.0005 
238 1 0.023493 0.0175391 0.0205016 0.0005 
1216 1 0.0200474 0.0166541 0.0216859 0.00075 
1230 1 0.0171068 0.01573 0.0207563 0.00075 
566 1 0.0210128 0.0174177 0.0207497 0.00075 
1333 1 0.0212701 0.0162207 0.0204998 0.0005 
1091 1 0.0200809 0.0182123 0.0205 0.0005 
1398 1 0.0204418 0.0206662 0.0205 0.0005 
1189 1 0.0234989 0.0145315 0.0212795 0.0005 
1427 1 0.0201142 0.0150304 0.0204995 0.0005 
898 1 0.0190516 0.0174161 0.0217506 0.0005 
1253 1 0.0193607 0.0147982 0.021955 0.0005 
1452 1 0.0206862 0.0192783 0.0207494 0.00075 
1488 1 0.0190781 0.0189161 0.0207558 0.00075 
1124 1 0.0234906 0.0151605 0.0205002 0.0005 
1137 1 0.0210342 0.0172949 0.0221101 0.0005 
1020 1 0.0225027 0.0186386 0.0219112 0.0015 
1401 1 0.0215607 0.0158856 0.0221082 0.001 
1298 1 0.0201905 0.015342 0.0218317 0.0005 
1170 1 0.02325 0.0157808 0.0216644 0.00075 
1831 1 0.0180197 0.0196338 0.0212701 0.0005 
1796 1 0.0193654 0.0183666 0.0218447 0.0005 
957 1 0.0234654 0.0196848 0.0205 0.0005 
1320 1 0.0188599 0.0203999 0.0207498 0.00075 
1598 1 0.01997 0.0204206 0.021347 0.0005 
1437 1 0.0235004 0.0203672 0.0220791 0.0005 
1184 1 0.0234942 0.0169639 0.021338 0.0005 
1738 1 0.0177253 0.0208627 0.0205 0.0005 
1692 1 0.0202976 0.0181944 0.0214806 0.0005 
1828 1 0.0181763 0.0186982 0.0218983 0.0005 
1202 1 0.0213353 0.0202579 0.021209 0.0005 
1460 1 0.0223169 0.0205647 0.0224173 0.0005 
1648 1 0.0177351 0.0210831 0.0222553 0.00125 
1219 1 0.0226458 0.0209613 0.0209997 0.001 
1984 1 0.0187344 0.019649 0.0219823 0.0005 
1413 1 0.0202046 0.0194288 0.0224902 0.001 
1767 1 0.0200232 0.0178539 0.022408 0.0005 
1434 1 0.023251 0.0145421 0.0225307 0.00075 
1293 1 0.00213734 0.0215552 0.0205 0.0005 
482 1 0.000499916 0.0220107 0.0204999 0.0005 
12 1 0.00147597 0.0227481 0.0207564 0.00075 
952 1 0.00507691 0.0245189 0.0205 0.0005 
1081 1 0.00666134 0.0241991 0.0205 0.0005 
904 1 0.00571944 0.0237454 0.0205 0.0005 
1439 1 0.00478736 0.0228827 0.02075 0.00075 
831 1 0.00366639 0.0242214 0.021 0.001 
534 1 0.000749997 0.0240608 0.0207503 0.00075 
1423 1 0.00297109 0.025453 0.0205 0.0005 
1406 1 0.00185349 0.0252034 0.0205 0.0005 
483 1 0.000523959 0.0252656 0.0205001 0.0005 
1394 1 0.00692642 0.0228098 0.0209999 0.001 
1483 1 0.00515973 0.0217128 0.0205 0.0005 
1512 1 0.00204439 0.0239824 0.0205 0.0005 
752 1 0.00445847 0.0253979 0.0205 0.0005 
919 1 0.00787213 0.0273837 0.0218925 0.00175 
978 1 0.00734148 0.025585 0.0205 0.0005 
1805 1 0.00297165 0.0226349 0.0207499 0.00075 
1576 1 0.00050001 0.0250332 0.0214986 0.0005 
1373 1 0.00600572 0.0253182 0.02075 0.00075 
1860 1 0.00397878 0.0219378 0.0205 0.0005 
946 1 0.0054825 0.0239458 0.0222992 0.00125 
1625 1 0.00050224 0.0223282 0.0214533 0.0005 
1455 1 0.00193636 0.0244419 0.021979 0.001 
1942 1 0.00419902 0.0219023 0.0217383 0.00075 
338 1 0.00175589 0.0271764 0.0217501 0.00175 
1698 1 0.00714274 0.0247952 0.0215767 0.00075 
991 1 0.00470822 0.0273667 0.0212531 0.00125 
1662 1 0.00278353 0.0228706 0.0222196 0.00075 
1926 1 0.000512176 0.0246626 0.0224275 0.0005 
1208 1 0.00768365 0.0244628 0.0205 0.0005 
1520 1 0.00584756 0.0263414 0.0221026 0.0005 
1650 1 0.00524354 0.0218985 0.0224296 0.0005 
780 1 0.0125705 0.0238309 0.0205 0.0005 
353 1 0.0156855 0.0232187 0.0205006 0.0005 
1294 1 0.00961673 0.0227559 0.0205 0.0005 
1180 1 0.0103176 0.0220397 0.0205 0.0005 
1462 1 0.0113909 0.0240081 0.0205006 0.0005 
1467 1 0.0125952 0.0227906 0.0205102 0.0005 
1343 1 0.00893585 0.0217221 0.0207499 0.00075 
1552 1 0.0112485 0.0225311 0.0211768 0.00075 
1602 1 0.0116946 0.0251194 0.0205 0.0005 
1621 1 0.0137378 0.0241958 0.0208773 0.00075 
861 1 0.0152005 0.0245076 0.02075 0.00075 
1643 1 0.00876027 0.0256297 0.0205 0.0005 
1539 1 0.013577 0.0230127 0.0205006 0.0005 
1330 1 0.0148514 0.0239918 0.0218792 0.0005 
1192 1 0.0153067 0.0261253 0.0205 0.0005 
1041 1 0.0101657 0.0243001 0.0220549 0.0015 
1614 1 0.00849481 0.023545 0.02075 0.00075 
1693 1 0.015329 0.0218758 0.0205 0.0005 
1618 1 0.0082869 0.0249863 0.0211017 0.0005 
1221 1 0.014712 0.0228693 0.0212355 0.00075 
1915 1 0.0142911 0.0253282 0.0205 0.0005 
1869 1 0.00980531 0.0255111 0.0205 0.0005 
1601 1 0.0103416 0.0220127 0.0222539 0.00075 
1655 1 0.00860539 0.02234 0.0223534 0.001 
1659 1 0.0155392 0.0215978 0.0221551 0.001 
1870 1 0.0152025 0.0280015 0.0207698 0.00075 
2193 1 0.00988971 0.0262922 0.0221762 0.0005 
1955 1 0.0156952 0.0230861 0.0223421 0.0005 
1775 1 0.016032 0.0229205 0.0213921 0.0005 
1105 1 0.0211706 0.021351 0.0205014 0.0005 
1563 1 0.0167155 0.023832 0.0205 0.0005 
1017 1 0.0165472 0.0219697 0.0207653 0.00075 
144 1 0.0167826 0.0252374 0.0210505 0.001 
152 1 0.0209176 0.0232644 0.0205 0.0005 
1292 1 0.0185981 0.0242554 0.0207497 0.00075 
512 1 0.0206543 0.0272702 0.0205 0.0005 
862 1 0.0164748 0.0267022 0.0205 0.0005 
1288 1 0.0177022 0.0223684 0.0205002 0.0005 
1048 1 0.0196368 0.021683 0.0207499 0.00075 
1415 1 0.0216587 0.0222244 0.0205 0.0005 
1087 1 0.0235 0.025494 0.0205 0.0005 
1176 1 0.0192422 0.0259972 0.0207499 0.00075 
1269 1 0.02325 0.0227955 0.0207501 0.00075 
1507 1 0.0234846 0.025523 0.021559 0.0005 
1574 1 0.0234929 0.0265281 0.0205 0.0005 
1472 1 0.0232473 0.0242956 0.02075 0.00075 
1590 1 0.0220304 0.0241529 0.0205 0.0005 
1634 1 0.0196948 0.0231832 0.0207499 0.00075 
908 1 0.0220332 0.0231523 0.0205049 0.0005 
1646 1 0.0186982 0.0224704 0.0205002 0.0005 
1927 1 0.0177631 0.0264257 0.0205048 0.0005 
1897 1 0.0195693 0.024144 0.0218949 0.00075 
1370 1 0.0232499 0.028108 0.0207501 0.00075 
1243 1 0.0210931 0.0254281 0.0212497 0.00125 
1978 1 0.0181695 0.0254027 0.0205001 0.0005 
1881 1 0.0187863 0.0251129 0.0216388 0.0005 
1514 1 0.0208845 0.0215653 0.0223086 0.00125 
1753 1 0.0161356 0.0239131 0.0213299 0.0005 
1925 1 0.0216605 0.0235106 0.0213665 0.0005 
1768 1 0.0174784 0.0276091 0.0207562 0.0005 
1794 1 0.0174745 0.0232797 0.02167 0.001 
1527 1 0.0193572 0.0260443 0.022245 0.00075 
1876 1 0.0163703 0.0240982 0.0222844 0.0005 
1106 1 0.0191796 0.02794 0.0212498 0.00125 
1323 1 0.0210815 0.0280987 0.0208662 0.0005 
1604 1 0.022999 0.0223273 0.0224176 0.001 
1090 1 0.0227318 0.0269829 0.0223205 0.00125 
2243 1 0.0160395 0.0268538 0.0218588 0.00075 
162 1 0.000501961 0.0327375 0.0205006 0.0005 
259 1 0.0016933 0.0331068 0.0205 0.0005 
522 1 0.000754112 0.0340379 0.0207499 0.00075 
672 1 0.0060135 0.0354696 0.0207497 0.00075 
348 1 0.00214584 0.0291676 0.0205 0.0005 
337 1 0.00316269 0.0338783 0.0207506 0.00075 
897 1 0.00050048 0.0352811 0.0205 0.0005 
980 1 0.00645293 0.0289169 0.0205 0.0005 
638 1 0.00416003 0.0350207 0.0207501 0.00075 
925 1 0.00704788 0.0326105 0.021832 0.00125 
1103 1 0.00525075 0.0289677 0.0205 0.0005 
506 1 0.00049994 0.034551 0.021861 0.0005 
1084 1 0.00159195 0.0314169 0.02075 0.00075 
1355 1 0.00200689 0.0342952 0.0205 0.0005 
1143 1 0.00355219 0.0289242 0.02075 0.00075 
1451 1 0.00447239 0.0297712 0.0205 0.0005 
412 1 0.00111445 0.0326842 0.0218714 0.001 
1285 1 0.000895099 0.0293051 0.02075 0.00075 
1607 1 0.00211026 0.030289 0.0205 0.0005 
1529 1 0.00527935 0.0344511 0.0215704 0.00075 
471 1 0.00759105 0.035052 0.0219453 0.00125 
1141 1 0.00376329 0.0318861 0.0217463 0.0015 
1290 1 0.000542257 0.0305911 0.0206178 0.0005 
1449 1 0.002655 0.0298562 0.0212283 0.0005 
1761 1 0.00526505 0.0332064 0.0216871 0.0005 
1760 1 0.00217947 0.0336709 0.0214939 0.0005 
2121 1 0.00732685 0.0295509 0.0224949 0.0005 
1168 1 0.00339295 0.0339772 0.0226022 0.00075 
2212 1 0.0060988 0.0282524 0.0229747 0.0005 
1480 1 0.00754858 0.030446 0.0207739 0.00075 
138 1 0.00792462 0.0292831 0.0205 0.0005 
2244 1 0.00574724 0.0288345 0.0221071 0.0005 
1880 1 0.00864235 0.0325563 0.0228238 0.0005 
505 1 0.00893044 0.0293758 0.0205 0.0005 
886 1 0.00823583 0.0328985 0.0205069 0.0005 
1249 1 0.014638 0.032019 0.02075 0.00075 
1154 1 0.0109243 0.0334004 0.0205 0.0005 
609 1 0.0119349 0.0333405 0.0205 0.0005 
1134 1 0.00896395 0.0341361 0.02075 0.00075 
1340 1 0.0105572 0.0347442 0.0205002 0.0005 
1678 1 0.0126864 0.0340015 0.0205007 0.0005 
1703 1 0.0126236 0.0313185 0.0205 0.0005 
1095 1 0.0139531 0.034195 0.0205 0.0005 
1872 1 0.00936576 0.0308666 0.021654 0.00125 
1167 1 0.015502 0.0353347 0.0205025 0.0005 
1815 1 0.0101508 0.0338114 0.0210176 0.0005 
1348 1 0.0139157 0.0304309 0.0205 0.0005 
1594 1 0.0147471 0.0350547 0.0212426 0.0005 
1935 1 0.00926488 0.0291094 0.0214519 0.0005 
2043 1 0.00996847 0.0293721 0.0205 0.0005 
2021 1 0.00803256 0.0297311 0.0217836 0.0005 
1867 1 0.00973026 0.034987 0.0220307 0.00075 
1793 1 0.0159145 0.0288116 0.0221132 0.00075 
2242 1 0.0127224 0.0308267 0.022131 0.001 
2245 1 0.0112116 0.032228 0.0218232 0.00075 
1083 1 0.0161044 0.0336227 0.0213382 0.00125 
698 1 0.0169092 0.0317512 0.021124 0.00075 
1786 1 0.017125 0.0285503 0.0205 0.0005 
1409 1 0.0179959 0.0290419 0.0205 0.0005 
1113 1 0.0192106 0.0298957 0.02075 0.00075 
1361 1 0.0162401 0.0294108 0.02075 0.00075 
1044 1 0.0213664 0.0302662 0.0212499 0.00125 
557 1 0.0204222 0.0342636 0.0212494 0.00125 
1015 1 0.0217661 0.0287364 0.0205 0.0005 
304 1 0.0225138 0.0314524 0.0205 0.0005 
1142 1 0.0220547 0.0339359 0.0205088 0.0005 
1335 1 0.0175013 0.0327077 0.0205 0.0005 
1273 1 0.0226303 0.0346962 0.0209403 0.0005 
1414 1 0.0235 0.0340523 0.0205009 0.0005 
1016 1 0.0232083 0.0324613 0.02075 0.00075 
959 1 0.0192277 0.0354185 0.0205 0.0005 
1531 1 0.0190826 0.0330813 0.0205 0.0005 
1329 1 0.0235 0.0293104 0.0205 0.0005 
1318 1 0.0200764 0.0327077 0.0205 0.0005 
1305 1 0.0197539 0.0313381 0.0207497 0.00075 
1258 1 0.0232986 0.03029 0.0205 0.0005 
1695 1 0.0181892 0.034418 0.0210227 0.001 
1224 1 0.0182591 0.031214 0.02075 0.00075 
878 1 0.0232496 0.0336498 0.0216642 0.00075 
1213 1 0.0212778 0.0323889 0.02075 0.00075 
1447 1 0.0180932 0.029969 0.0222436 0.00075 
1603 1 0.0173989 0.0298515 0.0205278 0.0005 
1403 1 0.0197143 0.0303388 0.0218244 0.0005 
1445 1 0.0235 0.0312695 0.0205107 0.0005 
1362 1 0.0232478 0.0307917 0.0216873 0.00075 
1442 1 0.0201279 0.029239 0.0219396 0.0005 
1626 1 0.0181579 0.0324067 0.021194 0.0005 
889 1 0.0234878 0.035054 0.0205031 0.0005 
1534 1 0.0230112 0.0291167 0.0218345 0.00075 
1579 1 0.0218772 0.0330509 0.0219561 0.00075 
1227 1 0.0184028 0.0333415 0.0224133 0.00075 
1854 1 0.017371 0.0285481 0.021849 0.00075 
1073 1 0.00460162 0.0364667 0.0207531 0.00075 
249 1 0.00214431 0.0364288 0.022001 0.002 
960 1 0.00601127 0.0370008 0.0207493 0.00075 
535 1 0.000505718 0.038037 0.0205 0.0005 
844 1 0.00383942 0.037516 0.0205 0.0005 
60 1 0.0049908 0.0390511 0.0217498 0.00175 
451 1 0.000750657 0.0420414 0.0207515 0.00075 
366 1 0.0014649 0.0383234 0.020503 0.0005 
680 1 0.00267657 0.0388306 0.020751 0.00075 
733 1 0.00194713 0.041698 0.0205 0.0005 
1108 1 0.000777877 0.0396137 0.02075 0.00075 
615 1 0.00638402 0.0412324 0.0205 0.0005 
316 1 0.000501993 0.0385553 0.0213552 0.0005 
1276 1 0.00285587 0.0406129 0.0209997 0.001 
1177 1 0.00460448 0.042006 0.0212498 0.00125 
1372 1 0.0078905 0.0396263 0.0218558 0.00075 
949 1 0.0070116 0.0401311 0.02075 0.00075 
1191 1 0.00113185 0.0408526 0.0219841 0.001 
91 1 0.00715473 0.0382357 0.02075 0.00075 
1537 1 0.00224266 0.0425325 0.0213828 0.00075 
1674 1 0.00696844 0.0372435 0.0218778 0.00075 
1179 1 0.00774289 0.0419103 0.0220384 0.0015 
1586 1 0.00583086 0.0411016 0.0221436 0.0005 
1745 1 0.00687041 0.0400863 0.0224282 0.0005 
835 1 0.00741857 0.0368236 0.0205524 0.0005 
1681 1 0.0058495 0.042579 0.0223378 0.0005 
924 1 0.0113511 0.0355687 0.0205 0.0005 
1762 1 0.0113687 0.0359967 0.021695 0.0005 
2018 1 0.0104185 0.0369812 0.0217779 0.0005 
626 1 0.00906426 0.0405898 0.0207489 0.00075 
1353 1 0.0100195 0.0374216 0.0208694 0.0005 
1419 1 0.012611 0.0366508 0.0207503 0.00075 
640 1 0.00995238 0.0358098 0.0207635 0.00075 
514 1 0.0104398 0.0422269 0.0204994 0.0005 
641 1 0.0107955 0.0408585 0.0209987 0.001 
1019 1 0.0139524 0.0377883 0.0205 0.0005 
669 1 0.00920275 0.0388449 0.0210014 0.001 
802 1 0.0125043 0.041146 0.02075 0.00075 
1043 1 0.014173 0.0406826 0.0209999 0.001 
1107 1 0.0111172 0.0367795 0.0207509 0.00075 
901 1 0.0109159 0.0382981 0.0207502 0.00075 
1149 1 0.0139068 0.0359104 0.0208921 0.00075 
1482 1 0.0122674 0.0396658 0.0207784 0.00075 
1265 1 0.0134432 0.0389719 0.0205 0.0005 
1705 1 0.014516 0.0386872 0.0205022 0.0005 
1716 1 0.0152728 0.041578 0.0205 0.0005 
912 1 0.0087101 0.0369499 0.0215152 0.001 
1346 1 0.012407 0.0381373 0.0207499 0.00075 
1741 1 0.0118466 0.0412127 0.0220077 0.0005 
1743 1 0.0156795 0.0393834 0.021203 0.001 
1661 1 0.012739 0.0407685 0.0219367 0.0005 
1487 1 0.0116293 0.0420018 0.0204994 0.0005 
1644 1 0.00913026 0.0418278 0.0205018 0.0005 
1572 1 0.0113775 0.0394207 0.0222649 0.001 
1131 1 0.0145479 0.0424587 0.0205 0.0005 
1622 1 0.0135227 0.0423892 0.0218186 0.001 
1181 1 0.01491 0.037016 0.0207508 0.00075 
2032 1 0.0141727 0.0393389 0.0222128 0.00075 
1802 1 0.0153768 0.0379363 0.0214839 0.0005 
1645 1 0.00958599 0.0402685 0.0221173 0.00075 
2083 1 0.0128268 0.0392314 0.0218197 0.0005 
1746 1 0.0158585 0.0412666 0.0219064 0.001 
856 1 0.0155409 0.0380655 0.0205001 0.0005 
1923 1 0.0136286 0.0408105 0.0223926 0.0005 
2003 1 0.0132827 0.0380672 0.0220462 0.00075 
2194 1 0.0145222 0.0379023 0.0220113 0.0005 
2125 1 0.0119392 0.0380426 0.0224857 0.0005 
1898 1 0.0116029 0.0371936 0.0218959 0.0005 
1902 1 0.0103252 0.038266 0.021853 0.0005 
1544 1 0.0163404 0.0361215 0.0218257 0.00125 
986 1 0.0180934 0.036144 0.02075 0.00075 
1145 1 0.0172426 0.0375457 0.0207499 0.00075 
1120 1 0.020033 0.0363367 0.0208206 0.00075 
909 1 0.0233637 0.0365422 0.0205 0.0005 
268 1 0.0168457 0.0387423 0.0205 0.0005 
1278 1 0.0194957 0.0396886 0.0205 0.0005 
1033 1 0.0186172 0.0395841 0.021953 0.001 
1307 1 0.0204396 0.0374944 0.0205017 0.0005 
1018 1 0.0185229 0.0399433 0.0204998 0.0005 
973 1 0.0197281 0.0406616 0.0205 0.0005 
1148 1 0.017362 0.0392409 0.0212071 0.0005 
990 1 0.0219596 0.0363243 0.0209999 0.001 
1003 1 0.0200098 0.038614 0.020882 0.00075 
374 1 0.0232501 0.0392472 0.0207503 0.00075 
394 1 0.0169356 0.0398048 0.0204999 0.0005 
326 1 0.0234999 0.04045 0.0205 0.0005 
650 1 0.0214336 0.0403427 0.0214999 0.0015 
848 1 0.0214708 0.0382034 0.02075 0.00075 
993 1 0.0234986 0.0414513 0.0204999 0.0005 
996 1 0.0178444 0.0386448 0.0205 0.0005 
892 1 0.018732 0.0377234 0.0207501 0.00075 
1261 1 0.0234864 0.0375419 0.0205 0.0005 
1117 1 0.0204407 0.0417859 0.0205 0.0005 
1268 1 0.0226965 0.038155 0.0205 0.0005 
1135 1 0.0217109 0.0424656 0.0207499 0.00075 
1422 1 0.0176272 0.041038 0.0210003 0.001 
1663 1 0.0177686 0.0383813 0.0215164 0.0005 
1559 1 0.0188001 0.0389463 0.0205 0.0005 
1709 1 0.0163333 0.0416238 0.0205008 0.0005 
1051 1 0.019305 0.037336 0.0220813 0.00075 
1165 1 0.0205438 0.0364498 0.0222315 0.00075 
1506 1 0.0165221 0.0381145 0.0215984 0.0005 
1747 1 0.0170786 0.0389332 0.0221371 0.0005 
1882 1 0.0162713 0.0406004 0.0205 0.0005 
1549 1 0.023458 0.0358023 0.0211657 0.0005 
1023 1 0.0194321 0.0416232 0.0205 0.0005 
876 1 0.0227459 0.0380246 0.0222893 0.00125 
981 1 0.0229611 0.0416537 0.0214162 0.0005 
1011 1 0.0234533 0.0402364 0.0214917 0.0005 
1819 1 0.0232139 0.0409124 0.0222133 0.0005 
1546 1 0.0167644 0.0423497 0.0214004 0.0005 
811 1 0.0207323 0.0379263 0.0220259 0.00075 
1101 1 0.0196787 0.0415723 0.0222075 0.00075 
1334 1 0.0171756 0.0424895 0.0204998 0.0005 
1803 1 0.0178078 0.0373555 0.022396 0.00075 
1877 1 0.0168082 0.0400766 0.0221566 0.0005 
1140 1 0.0233343 0.0398096 0.0224049 0.0005 
1186 1 0.00313225 0.0426242 0.0205 0.0005 
682 1 0.00755541 0.0431754 0.0205003 0.0005 
1301 1 0.00625907 0.0430169 0.0207544 0.00075 
1497 1 0.00074993 0.0430171 0.0218906 0.00075 
519 1 0.000500852 0.0432847 0.0205 0.0005 
247 1 0.00163746 0.0437503 0.02075 0.00075 
309 1 0.00511986 0.0435101 0.0205036 0.0005 
554 1 0.000593343 0.0448779 0.0205 0.0005 
1215 1 0.00244952 0.0446673 0.0205 0.0005 
570 1 0.00337272 0.0438465 0.0205012 0.0005 
668 1 0.000522563 0.0462963 0.0205 0.0005 
386 1 0.00155445 0.0455752 0.0205 0.0005 
433 1 0.00293436 0.0455586 0.0205 0.0005 
584 1 0.00549793 0.0472304 0.0207502 0.00075 
242 1 0.00773331 0.0495954 0.0205 0.0005 
987 1 0.00430598 0.047512 0.0205 0.0005 
1387 1 0.00582636 0.0489849 0.0209999 0.001 
236 1 0.00229979 0.0474572 0.0219998 0.002 
1432 1 0.0043353 0.0441301 0.0205037 0.0005 
1357 1 0.00742052 0.0442702 0.0205 0.0005 
1351 1 0.00342702 0.045301 0.0213752 0.0005 
1378 1 0.0036324 0.0448414 0.0205026 0.0005 
1909 1 0.00678448 0.0462339 0.0205145 0.0005 
608 1 0.000502855 0.0485115 0.0205 0.0005 
1635 1 0.00306731 0.0437603 0.0217118 0.00075 
1822 1 0.00741899 0.0464269 0.0212861 0.0005 
1569 1 0.000500011 0.0493999 0.0209954 0.0005 
1985 1 0.00689737 0.0476117 0.0212087 0.00075 
1787 1 0.00566989 0.0478069 0.0219195 0.0005 
545 1 0.0010926 0.0447151 0.0221369 0.001 
1901 1 0.0047888 0.0473251 0.0217757 0.0005 
2151 1 0.00720504 0.0491813 0.0215829 0.0005 
2185 1 0.00417269 0.045732 0.0205 0.0005 
1930 1 0.00771907 0.046974 0.0205 0.0005 
1664 1 0.00459147 0.0484931 0.0222758 0.0005 
1640 1 0.00566916 0.0450901 0.0224684 0.002 
1484 1 0.0112665 0.0426189 0.021817 0.001 
621 1 0.00961517 0.0428409 0.0212091 0.00075 
1777 1 0.0083437 0.0457227 0.02075 0.00075 