ITEM: TIMESTEP
310000
ITEM: NUMBER OF ATOMS
2617
ITEM: BOX BOUNDS mm mm mm
-2.4e-06 0.0240024
-7.8e-06 0.0780078
-3e-06 0.030003
ITEM: ATOMS id type x y z radius 
291 1 0.00285358 0.00152268 0.0214998 0.0015 
368 1 0.000500032 0.0015022 0.0205 0.0005 
784 1 0.00559947 0.00335299 0.02075 0.00075 
32 1 0.00525257 0.000500392 0.0205 0.0005 
241 1 0.0046977 0.00248662 0.0205 0.0005 
815 1 0.00122845 0.00218745 0.0205 0.0005 
448 1 0.00382549 0.00297574 0.0205 0.0005 
300 1 0.000503022 0.000501936 0.0204998 0.0005 
442 1 0.00104408 0.00359887 0.0209999 0.001 
816 1 0.00604587 0.00492233 0.0205 0.0005 
710 1 0.00425174 0.000500214 0.0205 0.0005 
527 1 0.000501013 0.00490467 0.0205 0.0005 
256 1 0.000792706 0.00616678 0.0205 0.0005 
870 1 0.00775556 0.00599279 0.0205 0.0005 
100 1 0.00486956 0.00264092 0.0214729 0.0005 
153 1 0.00516688 0.00160344 0.0205 0.0005 
486 1 0.00363394 0.005113 0.0222497 0.00225 
722 1 0.0014741 0.00517166 0.0205 0.0005 
864 1 0.00477841 0.00101841 0.0212119 0.0005 
503 1 0.000499978 0.00490418 0.0214999 0.0005 
561 1 0.00631608 0.00202688 0.02075 0.00075 
501 1 0.00575331 0.000586204 0.0213613 0.0005 
64 1 0.00637975 0.00632078 0.0209998 0.001 
954 1 0.006254 0.000499998 0.0205 0.0005 
75 1 0.00177001 0.00692283 0.0207498 0.00075 
390 1 0.000499993 0.00590084 0.0214184 0.0005 
887 1 0.00662873 0.00689897 0.0223613 0.0005 
380 1 0.0050434 0.00680755 0.0205 0.0005 
587 1 0.000499958 0.00399041 0.0223417 0.0005 
370 1 0.0074298 0.000854607 0.0207497 0.00075 
28 1 0.000749968 0.000749995 0.0216996 0.00075 
842 1 0.00629596 0.00578678 0.0223991 0.0005 
220 1 0.0073278 0.000749809 0.0222422 0.00075 
1070 1 0.00785978 0.00674761 0.0218302 0.00075 
1492 1 0.000499988 0.00497818 0.0224971 0.0005 
307 1 0.00782315 0.00201443 0.0204999 0.0005 
274 1 0.0075725 0.00708426 0.0205 0.0005 
324 1 0.00800484 0.0040062 0.0219997 0.002 
1195 1 0.00821608 0.00159202 0.0213856 0.0005 
121 1 0.0087555 0.00598341 0.0205 0.0005 
228 1 0.00951814 0.00533662 0.0205 0.0005 
490 1 0.00995768 0.00443842 0.0205 0.0005 
199 1 0.01159 0.00331556 0.0204999 0.0005 
395 1 0.0107513 0.00274386 0.0205 0.0005 
474 1 0.0139625 0.00182624 0.0207498 0.00075 
282 1 0.0105155 0.00130802 0.0205 0.0005 
590 1 0.00988544 0.00049994 0.0204998 0.0005 
176 1 0.0135047 0.000500472 0.0205 0.0005 
289 1 0.0111107 0.000500589 0.0205 0.0005 
362 1 0.00888552 0.000499974 0.0204999 0.0005 
783 1 0.0108511 0.00398934 0.0204999 0.0005 
51 1 0.0134868 0.00296794 0.0205 0.0005 
233 1 0.00965567 0.00219644 0.02075 0.00075 
217 1 0.0109364 0.0049856 0.0204999 0.0005 
549 1 0.0104234 0.00473026 0.0213374 0.0005 
126 1 0.0126431 0.00469066 0.0214998 0.0015 
676 1 0.0103642 0.000749889 0.0216269 0.00075 
209 1 0.0139307 0.0058479 0.0204994 0.0005 
730 1 0.00866552 0.00147556 0.0205 0.0005 
764 1 0.0105573 0.00647516 0.0213363 0.00125 
311 1 0.0145397 0.00647248 0.021719 0.001 
763 1 0.00994316 0.00341928 0.0205 0.0005 
66 1 0.0143791 0.00483962 0.0205 0.0005 
61 1 0.0149171 0.00568339 0.0205 0.0005 
108 1 0.0150678 0.0034162 0.0212498 0.00125 
89 1 0.00843979 0.000499915 0.0213949 0.0005 
155 1 0.0120264 0.00179586 0.0212498 0.00125 
178 1 0.0150328 0.000750215 0.02075 0.00075 
364 1 0.010826 0.00336491 0.0215823 0.00075 
895 1 0.0114157 0.000499946 0.0222548 0.0005 
598 1 0.0128737 0.000500331 0.022066 0.0005 
171 1 0.0130801 0.00678143 0.02075 0.00075 
581 1 0.0122238 0.00670092 0.0224189 0.00075 
161 1 0.0232501 0.000749874 0.0207498 0.00075 
159 1 0.0227627 0.0033739 0.0205 0.0005 
204 1 0.0234933 0.00478376 0.0205 0.0005 
219 1 0.02148 0.00100001 0.0209999 0.001 
333 1 0.02325 0.00400342 0.0214636 0.00075 
142 1 0.0232502 0.00224975 0.0207499 0.00075 
200 1 0.0204418 0.00239093 0.0207493 0.00075 
340 1 0.0217847 0.00442573 0.02075 0.00075 
452 1 0.0235 0.00591305 0.0205 0.0005 
518 1 0.0194462 0.000763255 0.02075 0.00075 
185 1 0.0164992 0.00547004 0.0212499 0.00125 
31 1 0.0170239 0.00149973 0.0214998 0.0015 
123 1 0.0228687 0.000999654 0.0224391 0.001 
273 1 0.0218749 0.00290109 0.0216137 0.001 
113 1 0.016719 0.00326765 0.0205 0.0005 
544 1 0.0186588 0.00411441 0.0209998 0.001 
577 1 0.0232494 0.00549181 0.0216498 0.00075 
652 1 0.0182447 0.00545229 0.021537 0.0005 
290 1 0.0189419 0.00240572 0.0207499 0.00075 
281 1 0.020315 0.00368686 0.0215061 0.00075 
57 1 0.0202955 0.00593669 0.0214998 0.0015 
143 1 0.022654 0.0053276 0.0205 0.0005 
853 1 0.018256 0.00554708 0.0205 0.0005 
106 1 0.0220783 0.00507387 0.0217777 0.0005 
1012 1 0.0181854 0.00669831 0.0217133 0.00075 
109 1 0.0184342 0.00653134 0.0204999 0.0005 
6 1 0.0225288 0.00694914 0.0209993 0.001 
998 1 0.000749822 0.00715415 0.0218246 0.00075 
1359 1 0.00295465 0.00723332 0.0205 0.0005 
588 1 0.0039543 0.00721071 0.0205 0.0005 
360 1 0.00576655 0.0117396 0.0205012 0.0005 
154 1 0.00469683 0.00818462 0.0207499 0.00075 
13 1 0.000521059 0.00714827 0.0205 0.0005 
879 1 0.00577107 0.00759695 0.0204996 0.0005 
137 1 0.00059896 0.00814528 0.0205 0.0005 
44 1 0.00491606 0.00967073 0.0207499 0.00075 
401 1 0.00613097 0.0111772 0.0221247 0.00125 
1166 1 0.00588315 0.00783896 0.0217204 0.00075 
1234 1 0.00576708 0.00911941 0.0214808 0.0005 
323 1 0.00249992 0.00926792 0.0219996 0.002 
820 1 0.000501541 0.0093743 0.0205 0.0005 
1067 1 0.00773138 0.0124543 0.0204998 0.0005 
713 1 0.00246198 0.0114827 0.0205 0.0005 
881 1 0.00050117 0.0103973 0.0205 0.0005 
943 1 0.00345142 0.0110798 0.0205 0.0005 
673 1 0.0046743 0.0111511 0.02075 0.00075 
174 1 0.00105832 0.0117014 0.0209999 0.001 
447 1 0.00586981 0.00881655 0.0205 0.0005 
737 1 0.00560148 0.0127887 0.0205 0.0005 
646 1 0.00138168 0.0137447 0.0205003 0.0005 
508 1 0.000501076 0.0131949 0.0205 0.0005 
872 1 0.00758199 0.0112382 0.0207498 0.00075 
439 1 0.00684998 0.0137686 0.0212498 0.00125 
891 1 0.00676746 0.00768041 0.0204997 0.0005 
427 1 0.00458172 0.00766875 0.0218827 0.0005 
1190 1 0.0049424 0.00869579 0.0218638 0.0005 
479 1 0.000500055 0.0129675 0.021579 0.0005 
911 1 0.00441079 0.0108889 0.0219584 0.0005 
296 1 0.00348576 0.0134653 0.0222497 0.00225 
521 1 0.000740062 0.0136201 0.0222976 0.0005 
35 1 0.00777427 0.0090468 0.021557 0.0015 
196 1 0.000703822 0.0138801 0.021224 0.0005 
636 1 0.0119131 0.00722557 0.0205 0.0005 
611 1 0.0084232 0.0139438 0.0205 0.0005 
275 1 0.0141541 0.00788139 0.02075 0.00075 
46 1 0.00879203 0.0072097 0.0207499 0.00075 
556 1 0.013696 0.00930969 0.0207499 0.00075 
287 1 0.0107517 0.0105944 0.0205 0.0005 
865 1 0.0133541 0.0124359 0.0205 0.0005 
756 1 0.0115878 0.00907564 0.0214999 0.0015 
318 1 0.0132778 0.00766168 0.0219546 0.00075 
686 1 0.0094476 0.00876025 0.0204999 0.0005 
10 1 0.0148498 0.00889386 0.0205 0.0005 
569 1 0.0123975 0.0106087 0.0205 0.0005 
252 1 0.0086839 0.0107036 0.0205 0.0005 
188 1 0.0149701 0.0125501 0.0216731 0.0015 
772 1 0.0126389 0.0117369 0.0205 0.0005 
709 1 0.00966256 0.0099659 0.0207499 0.00075 
1061 1 0.0114437 0.0113164 0.0205 0.0005 
110 1 0.0136822 0.0135345 0.0205 0.0005 
1118 1 0.00960593 0.00981061 0.0219889 0.0005 
59 1 0.011677 0.0128856 0.0205 0.0005 
974 1 0.0114098 0.0138517 0.0205 0.0005 
734 1 0.0126578 0.013191 0.0212126 0.00075 
968 1 0.0121794 0.0112458 0.0215536 0.00075 
62 1 0.00973041 0.0124141 0.0220002 0.002 
1238 1 0.00990937 0.00807815 0.0210667 0.0005 
1028 1 0.0137379 0.0109096 0.0207498 0.00075 
1653 1 0.0145013 0.00866305 0.0216617 0.0005 
80 1 0.0151345 0.0100716 0.0213917 0.001 
810 1 0.00974668 0.0080575 0.0223057 0.00075 
43 1 0.0155558 0.0140617 0.0205 0.0005 
1080 1 0.013384 0.010603 0.0221746 0.00075 
1922 1 0.0156939 0.00857523 0.0209317 0.0005 
714 1 0.0157306 0.01112 0.0204999 0.0005 
192 1 0.0157116 0.00733865 0.02075 0.00075 
2226 1 0.0135188 0.0137881 0.0224001 0.0005 
190 1 0.0172116 0.00732286 0.02075 0.00075 
1056 1 0.0164073 0.0107902 0.0223896 0.0005 
1846 1 0.0161169 0.00937191 0.0205 0.0005 
342 1 0.0169856 0.0121527 0.0207502 0.00075 
319 1 0.0211943 0.007417 0.0204998 0.0005 
293 1 0.01878 0.0106797 0.0217498 0.00175 
735 1 0.0208089 0.00975403 0.0214515 0.0005 
308 1 0.0202264 0.0084477 0.0209998 0.001 
49 1 0.0169126 0.00997746 0.0204999 0.0005 
146 1 0.0192615 0.00732691 0.0205 0.0005 
578 1 0.0229939 0.00889501 0.0209999 0.001 
139 1 0.0170146 0.0138844 0.0209999 0.001 
90 1 0.0185297 0.00806606 0.0211934 0.00075 
71 1 0.0215208 0.00906128 0.0205 0.0005 
659 1 0.0173111 0.00881957 0.0207499 0.00075 
967 1 0.0167172 0.010958 0.0204999 0.0005 
130 1 0.0216417 0.0115036 0.0205 0.0005 
41 1 0.0216998 0.0102799 0.02075 0.00075 
231 1 0.0235001 0.0102154 0.0204999 0.0005 
279 1 0.0234994 0.00774605 0.0218211 0.0005 
693 1 0.0213997 0.00773187 0.0216012 0.0005 
725 1 0.0228684 0.0112021 0.0209352 0.00075 
697 1 0.0204745 0.00985305 0.0205 0.0005 
330 1 0.0225339 0.0126524 0.0207499 0.00075 
78 1 0.0225245 0.013877 0.0204998 0.0005 
800 1 0.0206963 0.0110763 0.0205 0.0005 
538 1 0.0235001 0.0122961 0.0214582 0.0005 
1236 1 0.0176333 0.0126165 0.0217137 0.0005 
812 1 0.0217962 0.0116329 0.0214795 0.0005 
944 1 0.0234829 0.0133935 0.0214997 0.0005 
794 1 0.0168662 0.0119002 0.0219686 0.0005 
592 1 0.0180635 0.0127339 0.0205 0.0005 
910 1 0.0215676 0.00893424 0.022013 0.00075 
523 1 0.0187284 0.0134808 0.0205 0.0005 
956 1 0.0190444 0.012532 0.0205 0.0005 
350 1 0.0205471 0.0133955 0.0214998 0.0015 
639 1 0.0224266 0.0140781 0.0214743 0.0005 
1899 1 0.0165592 0.0105588 0.0214032 0.0005 
1138 1 0.0231834 0.0102415 0.0221017 0.00075 
272 1 0.0234987 0.0134069 0.0204999 0.0005 
770 1 0.0234998 0.0114454 0.0219862 0.0005 
1517 1 0.0210236 0.01087 0.0216211 0.0005 
1498 1 0.0185437 0.0129024 0.0220127 0.0005 
1193 1 0.0184411 0.0137088 0.0214303 0.0005 
782 1 0.000500088 0.0145406 0.0219471 0.0005 
70 1 0.000500151 0.0145421 0.0205 0.0005 
888 1 0.00300886 0.0161283 0.0205 0.0005 
550 1 0.00269198 0.0170897 0.0205 0.0005 
1 1 0.00750406 0.0156614 0.0207499 0.00075 
529 1 0.00124978 0.0159651 0.0212498 0.00125 
269 1 0.00711029 0.0176109 0.0212499 0.00125 
19 1 0.00485613 0.0165301 0.0212498 0.00125 
1077 1 0.00640247 0.0161967 0.0205 0.0005 
877 1 0.00792182 0.019599 0.0204997 0.0005 
1060 1 0.00762305 0.0150917 0.022148 0.0005 
1004 1 0.00568638 0.019228 0.02075 0.00075 
688 1 0.00050064 0.0190394 0.0205 0.0005 
896 1 0.0069132 0.0191838 0.0205 0.0005 
1660 1 0.00524695 0.0180809 0.0205 0.0005 
972 1 0.00652739 0.0156363 0.021888 0.00075 
223 1 0.00337856 0.019099 0.0217536 0.00175 
700 1 0.00500045 0.0207157 0.02075 0.00075 
1416 1 0.00364314 0.0209474 0.0204995 0.0005 
436 1 0.00781166 0.0161088 0.0218758 0.0005 
678 1 0.00101768 0.0203566 0.0209999 0.001 
315 1 0.00315625 0.0164466 0.0223 0.00075 
600 1 0.00693314 0.0208362 0.02125 0.00125 
576 1 0.000761992 0.0178392 0.02075 0.00075 
1094 1 0.00578387 0.0186644 0.0223149 0.00075 
1884 1 0.000518508 0.0187876 0.0215271 0.0005 
430 1 0.00219796 0.0172055 0.0220396 0.0005 
1578 1 0.00404316 0.021236 0.0215204 0.0005 
1293 1 0.00250413 0.0207652 0.0205 0.0005 
1859 1 0.00806376 0.0190754 0.0213393 0.0005 
748 1 0.00809151 0.0142552 0.0224324 0.0005 
1682 1 0.00840404 0.020338 0.0220609 0.0005 
1570 1 0.00841387 0.0185234 0.0205 0.0005 
1144 1 0.00868021 0.0207974 0.0211571 0.0005 
1196 1 0.00866835 0.0170712 0.0223297 0.0005 
695 1 0.00858623 0.0148436 0.0213902 0.00075 
54 1 0.00904342 0.0164872 0.0209999 0.001 
786 1 0.00956464 0.0150206 0.0221477 0.0005 
180 1 0.0104702 0.0189295 0.0219999 0.002 
221 1 0.0113707 0.0155847 0.0214997 0.0015 
118 1 0.0140682 0.0151131 0.02125 0.00125 
717 1 0.0124268 0.0185122 0.0205 0.0005 
1232 1 0.00967602 0.0144192 0.0205 0.0005 
934 1 0.0138395 0.0192613 0.02075 0.00075 
1310 1 0.0131115 0.0177384 0.0205 0.0005 
1212 1 0.0147082 0.0181182 0.0205 0.0005 
624 1 0.013666 0.0168099 0.0205 0.0005 
1035 1 0.0118517 0.0174589 0.0205 0.0005 
1592 1 0.0126335 0.0194999 0.0205 0.0005 
1697 1 0.00881273 0.0200554 0.0205 0.0005 
2033 1 0.0132377 0.0205854 0.0214857 0.0005 
1264 1 0.0110073 0.0209215 0.0205 0.0005 
1164 1 0.0122324 0.0206846 0.0207497 0.00075 
2117 1 0.0157306 0.0145578 0.0213842 0.0005 
982 1 0.01487 0.0206001 0.0205003 0.0005 
1448 1 0.0125196 0.0174276 0.0212436 0.0005 
2386 1 0.0138176 0.0174117 0.0215861 0.00075 
2420 1 0.0141729 0.0203855 0.0211873 0.0005 
2431 1 0.0147122 0.0165573 0.0205001 0.0005 
2511 1 0.0151346 0.0164739 0.0216594 0.0005 
2287 1 0.0149639 0.0183753 0.0214438 0.0005 
2500 1 0.0158352 0.0189509 0.0221692 0.0005 
2378 1 0.0150253 0.0208064 0.0215022 0.0005 
2447 1 0.0131747 0.0185497 0.0223222 0.00075 
2086 1 0.0137443 0.0164075 0.022386 0.0005 
189 1 0.0160372 0.0149397 0.0205 0.0005 
1338 1 0.0161225 0.0185738 0.0205006 0.0005 
345 1 0.018966 0.0144521 0.0205 0.0005 
741 1 0.0179776 0.0145871 0.0219103 0.0005 
450 1 0.0180483 0.0148496 0.0205 0.0005 
1311 1 0.0161994 0.0204375 0.0205 0.0005 
947 1 0.017989 0.0181854 0.0205 0.0005 
260 1 0.0182582 0.0164277 0.0224006 0.001 
591 1 0.02228 0.0150861 0.0207499 0.00075 
465 1 0.0192007 0.0157638 0.0205 0.0005 
719 1 0.0190611 0.0151048 0.0215618 0.00075 
628 1 0.0235002 0.0162551 0.0204999 0.0005 
42 1 0.0223238 0.0165949 0.0207498 0.00075 
747 1 0.0208491 0.0151009 0.0204999 0.0005 
813 1 0.0202422 0.0160743 0.0205 0.0005 
787 1 0.0188967 0.0177492 0.0205 0.0005 
492 1 0.0196649 0.017104 0.0205 0.0005 
238 1 0.0235001 0.017594 0.0204998 0.0005 
1216 1 0.0199052 0.0165986 0.0216179 0.00075 
1230 1 0.0171229 0.0156554 0.02075 0.00075 
566 1 0.0209582 0.0172213 0.02075 0.00075 
1333 1 0.0212424 0.0160202 0.0205 0.0005 
1091 1 0.0200185 0.0180397 0.0205 0.0005 
1398 1 0.0211418 0.0202323 0.0205012 0.0005 
1189 1 0.0234999 0.014331 0.0208817 0.0005 
1427 1 0.0198207 0.0149713 0.0205006 0.0005 
898 1 0.0195032 0.0177581 0.0213102 0.0005 
1452 1 0.020561 0.0191446 0.02075 0.00075 
1488 1 0.0190714 0.0189616 0.02075 0.00075 
1124 1 0.0234984 0.0152552 0.0204999 0.0005 
1020 1 0.0224118 0.0185319 0.0218907 0.0015 
1401 1 0.0214401 0.0158707 0.022075 0.001 
1298 1 0.0202444 0.0154096 0.0212942 0.0005 
1170 1 0.0232402 0.015804 0.0216513 0.00075 
1831 1 0.0179107 0.0190436 0.021211 0.0005 
957 1 0.0234794 0.0198322 0.0205 0.0005 
1320 1 0.0199692 0.0207275 0.02075 0.00075 
1598 1 0.020362 0.0205455 0.0219231 0.0005 
1437 1 0.0234998 0.0202111 0.0218316 0.0005 
1184 1 0.0235 0.0169689 0.0212801 0.0005 
1692 1 0.0204542 0.0181199 0.0214578 0.0005 
1828 1 0.0186128 0.0180014 0.0216952 0.0005 
1202 1 0.0211713 0.0200623 0.0214884 0.0005 
1460 1 0.0212145 0.0210642 0.0218493 0.0005 
1219 1 0.0224351 0.0208674 0.0209997 0.001 
1984 1 0.0197934 0.0194875 0.0216776 0.0005 
1738 1 0.0179519 0.0197459 0.0205 0.0005 
1648 1 0.0174267 0.0209798 0.0216242 0.00125 
2460 1 0.0160962 0.0195138 0.0208695 0.0005 
2467 1 0.017125 0.0187155 0.0205 0.0005 
1963 1 0.0193401 0.0206181 0.0218246 0.0005 
1434 1 0.0232502 0.0144664 0.0223303 0.00075 
1796 1 0.020338 0.0186565 0.0224019 0.0005 
482 1 0.000526743 0.0217031 0.0205 0.0005 
12 1 0.00182084 0.0218913 0.02075 0.00075 
952 1 0.00573286 0.0243322 0.0205 0.0005 
1081 1 0.00765336 0.0250454 0.0205 0.0005 
904 1 0.00721475 0.0241122 0.0205171 0.0005 
1439 1 0.00631174 0.0228159 0.0210107 0.00075 
831 1 0.00460747 0.0233838 0.0212127 0.001 
534 1 0.000751382 0.0229874 0.0207499 0.00075 
1423 1 0.00237526 0.0247729 0.0205 0.0005 
1406 1 0.00137305 0.0246276 0.0205 0.0005 
483 1 0.000508401 0.025198 0.0205 0.0005 
1483 1 0.00569878 0.0218529 0.0205001 0.0005 
1512 1 0.00272046 0.0231283 0.0204994 0.0005 
752 1 0.00534212 0.0252756 0.0205 0.0005 
1805 1 0.00344653 0.0221498 0.020776 0.00075 
1576 1 0.000500798 0.0242592 0.0209009 0.0005 
1373 1 0.00670584 0.0258246 0.0207619 0.00075 
1860 1 0.00467806 0.0219097 0.020545 0.0005 
946 1 0.00672905 0.024439 0.0222678 0.00125 
1625 1 0.000502465 0.0216746 0.0215001 0.0005 
1455 1 0.0020133 0.0238352 0.0216166 0.001 
1942 1 0.0052562 0.0218337 0.0217169 0.00075 
338 1 0.00179816 0.0267261 0.0220585 0.00175 
991 1 0.00513635 0.0270315 0.0214683 0.00125 
1662 1 0.00392199 0.0220114 0.0224936 0.00075 
1926 1 0.000499977 0.0227157 0.0219438 0.0005 
1520 1 0.00694379 0.026911 0.0214273 0.0005 
1143 1 0.00352617 0.0282219 0.02075 0.00075 
2021 1 0.00765761 0.0265988 0.0205001 0.0005 
980 1 0.00659403 0.0270473 0.0205 0.0005 
1825 1 0.000502702 0.0237678 0.02179 0.0005 
2481 1 0.00677486 0.0278071 0.0219225 0.0005 
1650 1 0.00636642 0.0224202 0.0221995 0.0005 
1480 1 0.00664116 0.0282687 0.0207682 0.00075 
2583 1 0.00395711 0.0248639 0.020961 0.0005 
1343 1 0.00976161 0.0212741 0.0207499 0.00075 
1394 1 0.00806219 0.0227677 0.0210121 0.001 
1698 1 0.00866131 0.024732 0.0211966 0.00075 
1342 1 0.00866235 0.0238082 0.0223831 0.00075 
978 1 0.00912004 0.0256659 0.0205001 0.0005 
1208 1 0.00906935 0.0237744 0.0205008 0.0005 
1757 1 0.0152985 0.022287 0.0222588 0.0005 
1577 1 0.0145066 0.0220027 0.0205 0.0005 
1350 1 0.0127047 0.0231182 0.0204999 0.0005 
919 1 0.00930248 0.0275021 0.0218002 0.00175 
780 1 0.0128561 0.0252654 0.0205 0.0005 
353 1 0.0148498 0.0238899 0.0205004 0.0005 
1294 1 0.0109778 0.0230883 0.020501 0.0005 
1180 1 0.0109443 0.0219337 0.0205 0.0005 
1462 1 0.0106855 0.0248927 0.0211572 0.0005 
1467 1 0.0118319 0.0236079 0.0204996 0.0005 
1552 1 0.0118536 0.0224909 0.0211664 0.00075 
1602 1 0.0110229 0.0260852 0.0205 0.0005 
1621 1 0.0121153 0.0245079 0.0213184 0.00075 
861 1 0.0141759 0.024914 0.02075 0.00075 
1643 1 0.0110284 0.0242161 0.0205 0.0005 
1539 1 0.0130834 0.0242811 0.0205 0.0005 
1330 1 0.014091 0.0239932 0.0215911 0.0005 
1192 1 0.0147282 0.0260598 0.0205008 0.0005 
1614 1 0.00979347 0.0227736 0.0207561 0.00075 
1693 1 0.0153157 0.0227868 0.0205 0.0005 
1618 1 0.0100422 0.0240281 0.0205 0.0005 
1221 1 0.0139288 0.0230826 0.0207502 0.00075 
1915 1 0.0137286 0.0260591 0.0204995 0.0005 
1869 1 0.0100518 0.0253027 0.0205 0.0005 
1601 1 0.0119625 0.0213104 0.0220857 0.00075 
1655 1 0.00939487 0.021992 0.0223293 0.001 
1870 1 0.014395 0.0281197 0.0207498 0.00075 
2193 1 0.0111264 0.0272963 0.0204996 0.0005 
2263 1 0.0139084 0.025987 0.0214801 0.0005 
2270 1 0.0126881 0.0272257 0.0212852 0.00125 
1753 1 0.0151208 0.0240204 0.0214542 0.0005 
862 1 0.0149825 0.0270373 0.0205001 0.0005 
1775 1 0.014949 0.0229958 0.0214697 0.0005 
1935 1 0.0109694 0.0283049 0.0205034 0.0005 
2004 1 0.0146846 0.0266035 0.0213504 0.0005 
1987 1 0.0149666 0.0281175 0.0218614 0.0005 
1958 1 0.0144623 0.0272762 0.0220562 0.0005 
2393 1 0.0114766 0.0283634 0.0218476 0.0005 
2243 1 0.0158663 0.0270055 0.0214133 0.00075 
1017 1 0.0156624 0.0215775 0.0207522 0.00075 
2348 1 0.0147225 0.0236846 0.0223086 0.0005 
1955 1 0.0153715 0.0260517 0.0221544 0.0005 
144 1 0.0158799 0.0252353 0.0209999 0.001 
1563 1 0.0158476 0.0238211 0.0205 0.0005 
2594 1 0.013579 0.0216843 0.0224657 0.0005 
2301 1 0.013886 0.0283062 0.0224685 0.00075 
2603 1 0.0109858 0.0227932 0.0220537 0.0005 
1711 1 0.0107769 0.0213668 0.022479 0.0005 
1105 1 0.021075 0.0212547 0.0204999 0.0005 
152 1 0.0213719 0.0236979 0.0205 0.0005 
1292 1 0.0174826 0.0241964 0.02075 0.00075 
512 1 0.0196605 0.0267042 0.0205 0.0005 
1288 1 0.0167266 0.0221849 0.0205001 0.0005 
1048 1 0.0185351 0.0223964 0.0207499 0.00075 
1415 1 0.0218881 0.0225161 0.0205 0.0005 
1087 1 0.0234998 0.02555 0.0205 0.0005 
1176 1 0.0184841 0.0256961 0.02075 0.00075 
1269 1 0.0232499 0.0226122 0.02075 0.00075 
1507 1 0.0234859 0.0247017 0.0218908 0.0005 
1574 1 0.0234997 0.0265648 0.0205 0.0005 
1472 1 0.0232489 0.0242491 0.02075 0.00075 
1590 1 0.0220951 0.0246858 0.0205 0.0005 
1634 1 0.0189465 0.0238539 0.0207497 0.00075 
908 1 0.0223344 0.0234258 0.0205 0.0005 
1646 1 0.0173718 0.0229762 0.0205 0.0005 
1927 1 0.0166747 0.0267272 0.0205007 0.0005 
1897 1 0.0181574 0.0232057 0.021955 0.00075 
1370 1 0.0231948 0.0277575 0.02075 0.00075 
1243 1 0.0205148 0.0250607 0.0212499 0.00125 
1978 1 0.0172033 0.0258779 0.0205 0.0005 
1881 1 0.0170454 0.0247255 0.0217947 0.0005 
1514 1 0.0204046 0.0225704 0.0214389 0.00125 
1925 1 0.0219801 0.0240146 0.0212323 0.0005 
1768 1 0.0162526 0.02783 0.0205 0.0005 
1794 1 0.0164355 0.0230833 0.0216674 0.001 
1527 1 0.0183717 0.0246885 0.0218553 0.00075 
1876 1 0.016205 0.0248558 0.0224142 0.0005 
1106 1 0.0183002 0.0276239 0.02125 0.00125 
1323 1 0.0198301 0.0280209 0.0204996 0.0005 
1090 1 0.0225817 0.0262954 0.0219694 0.00125 
1837 1 0.0166875 0.0278469 0.0218918 0.0005 
1015 1 0.0218343 0.0272385 0.0205 0.0005 
1974 1 0.0234998 0.028242 0.0218614 0.0005 
1267 1 0.0206058 0.0272881 0.0215533 0.001 
2065 1 0.0193362 0.0238912 0.0219366 0.0005 
1758 1 0.0170516 0.0261169 0.0223599 0.001 
1103 1 0.00501131 0.0285399 0.0205 0.0005 
138 1 0.00782052 0.0285917 0.0205018 0.0005 
162 1 0.0005 0.0327236 0.0205 0.0005 
259 1 0.00249886 0.0330385 0.0205 0.0005 
522 1 0.0009515 0.0338621 0.02075 0.00075 
348 1 0.00205109 0.028835 0.0205 0.0005 
337 1 0.00318305 0.0319102 0.0207511 0.00075 
897 1 0.000500052 0.0354236 0.0205 0.0005 
638 1 0.00362752 0.0335586 0.02075 0.00075 
506 1 0.000499993 0.0345485 0.021692 0.0005 
1084 1 0.00106011 0.0308812 0.02075 0.00075 
1355 1 0.0022395 0.0340102 0.0205 0.0005 
1451 1 0.00426027 0.0292403 0.0205 0.0005 
412 1 0.00157294 0.0323758 0.021502 0.001 
1285 1 0.000776716 0.0285992 0.0207505 0.00075 
1607 1 0.00153538 0.0296995 0.0205 0.0005 
1529 1 0.00466712 0.0348785 0.02075 0.00075 
1290 1 0.000499981 0.0297921 0.0205 0.0005 
1449 1 0.00286782 0.029644 0.0205 0.0005 
1761 1 0.0055715 0.0340447 0.0205 0.0005 
1760 1 0.00250121 0.0335672 0.0214475 0.0005 
1611 1 0.00446171 0.0337762 0.0216551 0.0005 
2278 1 0.00292583 0.0306974 0.0205 0.0005 
2244 1 0.00173019 0.0291055 0.021411 0.0005 
2306 1 0.00595201 0.0321937 0.02075 0.00075 
2343 1 0.00553376 0.0294605 0.0205 0.0005 
2387 1 0.00717512 0.0330767 0.02075 0.00075 
2407 1 0.00450157 0.0319026 0.0205 0.0005 
2421 1 0.00547258 0.0332466 0.0213109 0.0005 
2423 1 0.00608351 0.0289984 0.0219604 0.00075 
2493 1 0.0077177 0.0343323 0.021521 0.0005 
672 1 0.00676612 0.0346034 0.0207503 0.00075 
2537 1 0.00377343 0.0309856 0.0214426 0.0005 
1872 1 0.00777885 0.0301727 0.0212526 0.00125 
1792 1 0.0039572 0.0325105 0.0219472 0.00075 
2484 1 0.00539557 0.0318673 0.0221514 0.0005 
2573 1 0.00588097 0.0307012 0.0218405 0.00075 
2427 1 0.00449784 0.0290399 0.022215 0.0005 
1702 1 0.000549655 0.0307295 0.0222025 0.0005 
1993 1 0.00339191 0.0302234 0.0223752 0.00075 
2455 1 0.00802311 0.0318989 0.0214103 0.0005 
505 1 0.00977272 0.0301929 0.0204994 0.0005 
886 1 0.0102415 0.0315438 0.0205 0.0005 
1249 1 0.0138884 0.0326674 0.02075 0.00075 
1154 1 0.0111443 0.0327964 0.0205 0.0005 
609 1 0.0126554 0.0326522 0.0205 0.0005 
1134 1 0.00879537 0.0326286 0.0207501 0.00075 
1340 1 0.0119355 0.0334101 0.0205 0.0005 
1678 1 0.0127894 0.0339309 0.0205 0.0005 
1703 1 0.0112226 0.0317945 0.0205 0.0005 
1095 1 0.0137965 0.0339375 0.0205 0.0005 
1167 1 0.0147817 0.0351306 0.0205 0.0005 
1815 1 0.0100241 0.0325241 0.0204999 0.0005 
1348 1 0.0130938 0.0297154 0.0204999 0.0005 
1594 1 0.0143089 0.0349734 0.0213672 0.0005 
2043 1 0.0105604 0.0294329 0.0205 0.0005 
1867 1 0.00894964 0.034293 0.0217548 0.00075 
1793 1 0.0145549 0.0293512 0.0216247 0.00075 
2242 1 0.012333 0.0309074 0.021 0.001 
2245 1 0.0108004 0.0314974 0.021641 0.00075 
2266 1 0.0131956 0.0287093 0.0205 0.0005 
1954 1 0.0107864 0.0305595 0.0205 0.0005 
924 1 0.0122509 0.0351016 0.0205 0.0005 
1762 1 0.00962546 0.0321807 0.0215711 0.0005 
640 1 0.0104717 0.0338151 0.0207694 0.00075 
2323 1 0.0132406 0.0349347 0.0205 0.0005 
2362 1 0.0140104 0.0293156 0.0205 0.0005 
2347 1 0.0125835 0.0344779 0.0213122 0.0005 
1361 1 0.015698 0.0299601 0.02075 0.00075 
2202 1 0.0143292 0.0310012 0.0210836 0.001 
2451 1 0.0118557 0.0292088 0.0207605 0.00075 
1083 1 0.0155193 0.0337129 0.0212499 0.00125 
835 1 0.0093208 0.0342366 0.0205187 0.0005 
2305 1 0.0155012 0.0304717 0.0218994 0.0005 
2225 1 0.00984283 0.0297823 0.0214079 0.0005 
2408 1 0.0135911 0.0343784 0.0217289 0.0005 
2304 1 0.0113418 0.0344422 0.022154 0.001 
2337 1 0.00837104 0.0331251 0.021817 0.0005 
2444 1 0.0127657 0.0350692 0.0220979 0.0005 
2574 1 0.013101 0.0290565 0.021769 0.0005 
698 1 0.015891 0.0317172 0.02075 0.00075 
2317 1 0.0112233 0.0298308 0.0222957 0.001 
2404 1 0.0131749 0.033269 0.0223055 0.00075 
1854 1 0.0159668 0.028855 0.0217281 0.00075 
960 1 0.00827628 0.0353286 0.0207499 0.00075 
2390 1 0.00913235 0.0319126 0.0223988 0.0005 
1786 1 0.0161984 0.0288303 0.0205 0.0005 
1409 1 0.0171984 0.0288362 0.0205 0.0005 
1113 1 0.0181885 0.0295572 0.02075 0.00075 
1044 1 0.020127 0.0295705 0.0212559 0.00125 
557 1 0.0202856 0.0337955 0.0212498 0.00125 
304 1 0.022445 0.0306073 0.0205 0.0005 
1142 1 0.0222621 0.0336451 0.0205001 0.0005 
1335 1 0.0178191 0.0331397 0.0205 0.0005 
1273 1 0.0224858 0.0346229 0.0205 0.0005 
1414 1 0.0234987 0.034699 0.0205 0.0005 
1016 1 0.0232442 0.0322738 0.02075 0.00075 
1531 1 0.0187066 0.0336353 0.0205 0.0005 
1329 1 0.0234584 0.0289539 0.0204999 0.0005 
1318 1 0.0194258 0.0323202 0.0205 0.0005 
1305 1 0.0187858 0.0309652 0.02075 0.00075 
1258 1 0.0235 0.029971 0.0205 0.0005 
1695 1 0.0182242 0.0349862 0.0209999 0.001 
1224 1 0.017308 0.0312224 0.02075 0.00075 
878 1 0.0232499 0.0337173 0.0212633 0.00075 
1213 1 0.0203305 0.0314946 0.0207499 0.00075 
1447 1 0.0170205 0.0301273 0.0217396 0.00075 
1603 1 0.0169269 0.029998 0.0204999 0.0005 
1403 1 0.0184316 0.0302482 0.0217628 0.0005 
1445 1 0.0234999 0.0310757 0.0205 0.0005 
1362 1 0.0232312 0.0305326 0.0215933 0.00075 
1442 1 0.0184418 0.0292382 0.0219334 0.0005 
1626 1 0.0183758 0.0321192 0.0205 0.0005 
1534 1 0.0220924 0.0292947 0.0207519 0.00075 
1579 1 0.0217591 0.0325284 0.0207496 0.00075 
1468 1 0.0187413 0.0321668 0.0223507 0.00125 
1227 1 0.0174735 0.0335403 0.0216389 0.00075 
1812 1 0.0234995 0.0293144 0.0214455 0.0005 
2044 1 0.0169721 0.0320243 0.0216663 0.0005 
959 1 0.0196169 0.035232 0.0205 0.0005 
2008 1 0.019476 0.0283967 0.0223808 0.0005 
2108 1 0.0198538 0.0354517 0.0216402 0.0005 
2439 1 0.0162111 0.031841 0.022437 0.0005 
1073 1 0.0052731 0.0369834 0.02075 0.00075 
249 1 0.0025047 0.0360295 0.0219997 0.002 
535 1 0.000501018 0.037095 0.0205 0.0005 
844 1 0.00425847 0.037801 0.0205 0.0005 
366 1 0.00189654 0.0385747 0.0205 0.0005 
680 1 0.00329938 0.0386665 0.02075 0.00075 
733 1 0.00209056 0.0414377 0.0205 0.0005 
1108 1 0.000890169 0.0400455 0.0207503 0.00075 
316 1 0.000608765 0.0380058 0.0208987 0.0005 
1276 1 0.00234954 0.0401447 0.0217123 0.001 
949 1 0.00602888 0.0425162 0.02075 0.00075 
91 1 0.00678564 0.0411724 0.02075 0.00075 
1679 1 0.00756182 0.0422738 0.0216739 0.00075 
2422 1 0.000527115 0.0413972 0.0205 0.0005 
2458 1 0.00336206 0.0399736 0.0205 0.0005 
1177 1 0.0039781 0.0416316 0.0212499 0.00125 
2542 1 0.00522141 0.0395747 0.0219177 0.00075 
457 1 0.00100404 0.0387645 0.0222876 0.001 
451 1 0.00110398 0.0425118 0.02075 0.00075 
471 1 0.0101977 0.0387856 0.0212672 0.00125 
2018 1 0.00909272 0.0422245 0.0222129 0.0005 
1353 1 0.01036 0.0410208 0.0205036 0.0005 
1419 1 0.0126879 0.0373573 0.02075 0.00075 
1019 1 0.0138239 0.0385617 0.0205 0.0005 
1043 1 0.0146881 0.0409362 0.0209999 0.001 
1107 1 0.011292 0.0363714 0.02075 0.00075 
901 1 0.0115725 0.0401881 0.02075 0.00075 
1149 1 0.0138948 0.0359798 0.02075 0.00075 
1482 1 0.0124127 0.0418172 0.02075 0.00075 
1265 1 0.0144608 0.0394742 0.0205 0.0005 
1705 1 0.0148237 0.0385346 0.0205 0.0005 
1716 1 0.0155613 0.0421088 0.0205 0.0005 
912 1 0.00890859 0.0411145 0.0209999 0.001 
1346 1 0.0130845 0.0402813 0.02075 0.00075 
1743 1 0.0159544 0.0393841 0.0209999 0.001 
1661 1 0.0141072 0.0420713 0.0217894 0.0005 
1181 1 0.014288 0.0374274 0.02075 0.00075 
1802 1 0.0153654 0.0379519 0.021106 0.0005 
2083 1 0.0142489 0.0395806 0.0214714 0.0005 
2003 1 0.012679 0.0388479 0.020927 0.00075 
2194 1 0.0147657 0.0386836 0.0215908 0.0005 
2275 1 0.0128766 0.0363054 0.0218025 0.00075 
2389 1 0.0114602 0.0375973 0.0205097 0.0005 
2032 1 0.0156017 0.040401 0.0223931 0.00075 
2452 1 0.0119938 0.0355377 0.0213623 0.0005 
2454 1 0.0149783 0.0377245 0.0219996 0.0005 
2284 1 0.00996637 0.0363098 0.0210379 0.0005 
2416 1 0.0114072 0.0374661 0.0218776 0.0005 
2499 1 0.0108095 0.041403 0.0213302 0.0005 
2510 1 0.0119692 0.0393876 0.02222 0.00075 
2516 1 0.0110536 0.0419738 0.0205 0.0005 
2535 1 0.0125702 0.0406866 0.0218147 0.0005 
2094 1 0.0135602 0.0383182 0.0221195 0.00075 
2488 1 0.0105252 0.0403543 0.0222302 0.0005 
2581 1 0.0152272 0.0391063 0.0224058 0.0005 
2217 1 0.0116221 0.0361955 0.0222896 0.0005 
2528 1 0.00803161 0.0367953 0.0224148 0.0005 
1544 1 0.0159909 0.0361726 0.0212499 0.00125 
889 1 0.0229926 0.0355736 0.0205 0.0005 
1862 1 0.0175919 0.0359787 0.0219304 0.0005 
856 1 0.0161478 0.0377992 0.0205 0.0005 
1746 1 0.0161028 0.042024 0.0219029 0.001 
986 1 0.01787 0.0366823 0.02075 0.00075 
1145 1 0.0173396 0.0380854 0.02075 0.00075 
1120 1 0.0201362 0.0363411 0.02075 0.00075 
909 1 0.0235 0.0364401 0.0205 0.0005 
268 1 0.017965 0.0393298 0.0205 0.0005 
1278 1 0.0197959 0.0401478 0.0205 0.0005 
1033 1 0.0186106 0.0401585 0.0218793 0.001 
1307 1 0.0205682 0.0374871 0.0205 0.0005 
1018 1 0.0180461 0.0404118 0.0205 0.0005 
973 1 0.0198647 0.0411494 0.0205 0.0005 
1148 1 0.0173678 0.0398819 0.0210821 0.0005 
990 1 0.0218388 0.0366597 0.0209999 0.001 
1003 1 0.0200367 0.0389434 0.0207499 0.00075 
374 1 0.0232483 0.0393221 0.02075 0.00075 
394 1 0.0170671 0.0406385 0.0205 0.0005 
326 1 0.0234993 0.0405248 0.0205 0.0005 
650 1 0.0214909 0.0405249 0.0214998 0.0015 
848 1 0.0214527 0.0383521 0.0207499 0.00075 
993 1 0.0235 0.0415889 0.0205 0.0005 
996 1 0.0187137 0.0386659 0.0205 0.0005 
892 1 0.0193248 0.0376029 0.0207499 0.00075 
1261 1 0.0235 0.0374401 0.0205 0.0005 
1117 1 0.0205796 0.0420047 0.0205 0.0005 
1268 1 0.0227002 0.0380403 0.0205 0.0005 
1422 1 0.0179121 0.0418308 0.0209999 0.001 
1663 1 0.0181342 0.0388203 0.0213753 0.0005 
1559 1 0.0189254 0.0396484 0.0205 0.0005 
1709 1 0.0165494 0.0423133 0.0205001 0.0005 
1051 1 0.0192127 0.0385162 0.0219345 0.00075 
1506 1 0.0162965 0.0379992 0.0214685 0.0005 
1747 1 0.0163271 0.0386728 0.0222668 0.0005 
1882 1 0.0162939 0.0413371 0.0205 0.0005 
1549 1 0.0234984 0.0358603 0.0213147 0.0005 