ITEM: TIMESTEP
530000
ITEM: NUMBER OF ATOMS
1843
ITEM: BOX BOUNDS mm mm mm
-2.4e-06 0.0240024
-7.8e-06 0.0780078
-3e-06 0.030003
ITEM: ATOMS id type x y z radius 
1 1 0.0032491 0.00244022 0.0214999 0.0015 
2 1 0.000499994 0.00210962 0.0205 0.0005 
3 1 0.00529263 0.0047819 0.02075 0.00075 
4 1 0.00470036 0.000500043 0.0205 0.0005 
5 1 0.0045065 0.00363147 0.0205 0.0005 
6 1 0.0027376 0.000500138 0.0205 0.0005 
7 1 0.00376466 0.00437159 0.0205 0.0005 
8 1 0.000499993 0.000505573 0.0205 0.0005 
9 1 0.00100775 0.00342953 0.0209999 0.001 
10 1 0.00555469 0.0063767 0.0205 0.0005 
11 1 0.0037225 0.000774084 0.0205 0.0005 
12 1 0.000500463 0.00594681 0.0205 0.0005 
13 1 0.00491873 0.0037363 0.021405 0.0005 
14 1 0.00477267 0.00160599 0.0205 0.0005 
15 1 0.00151063 0.0058197 0.0205 0.0005 
16 1 0.00579074 0.00150799 0.0205 0.0005 
17 1 0.000499884 0.00474931 0.0204999 0.0005 
18 1 0.0053583 0.00268163 0.02075 0.00075 
19 1 0.00551159 0.000499995 0.0213996 0.0005 
20 1 0.00594821 0.000500023 0.0205 0.0005 
21 1 0.000770809 0.000499991 0.0214626 0.0005 
22 1 0.00679105 0.00223753 0.02075 0.00075 
23 1 0.00159991 0.00110599 0.0207499 0.00075 
24 1 0.00715179 0.000771293 0.0207517 0.00075 
25 1 0.00279876 0.00411273 0.0205 0.0005 
27 1 0.00210078 0.00499357 0.0205 0.0005 
28 1 0.0021918 0.00434871 0.0212588 0.0005 
29 1 0.00192405 0.000749981 0.0221705 0.00075 
31 1 0.000499983 0.00143889 0.0212417 0.0005 
32 1 0.000500021 0.00619521 0.0214751 0.0005 
33 1 0.00118068 0.00511799 0.0214811 0.00075 
34 1 0.00615384 0.00375429 0.0206139 0.0005 
35 1 0.000926743 0.00702274 0.0219754 0.0005 
36 1 0.00468407 0.00105724 0.0213312 0.0005 
37 1 0.00195249 0.00384457 0.0220886 0.0005 
38 1 0.00380161 0.000499992 0.0214584 0.0005 
40 1 0.000499993 0.000504725 0.0224251 0.0005 
41 1 0.00729941 0.0033525 0.0205 0.0005 
42 1 0.00792648 0.0017407 0.0205 0.0005 
43 1 0.00592102 0.004106 0.0216088 0.0005 
1724 1 0.00471244 0.00641539 0.0218458 0.00075 
1770 1 0.00250763 0.00591102 0.0205118 0.0005 
1610 1 0.0052579 0.00501472 0.0223627 0.0005 
44 1 0.00799392 0.00696757 0.0205 0.0005 
45 1 0.00915497 0.00601652 0.0205 0.0005 
46 1 0.00952402 0.00508712 0.0205 0.0005 
47 1 0.0112714 0.00412202 0.0205 0.0005 
48 1 0.009622 0.00327742 0.0205 0.0005 
49 1 0.0131936 0.00215378 0.02075 0.00075 
50 1 0.00985041 0.00147817 0.0205 0.0005 
51 1 0.0100678 0.000499988 0.0205 0.0005 
52 1 0.0129509 0.00053612 0.0205 0.0005 
53 1 0.0110658 0.000562994 0.0205 0.0005 
54 1 0.00836059 0.000500003 0.0205 0.0005 
55 1 0.0106079 0.0049183 0.0205 0.0005 
56 1 0.0122212 0.00380932 0.0205 0.0005 
57 1 0.00844809 0.0029274 0.02075 0.00075 
58 1 0.0104871 0.00610299 0.0205 0.0005 
59 1 0.00987562 0.00571822 0.0211914 0.0005 
60 1 0.0121703 0.00569434 0.0214999 0.0015 
61 1 0.0102283 0.000777895 0.021708 0.00075 
62 1 0.00885596 0.00137184 0.0205 0.0005 
63 1 0.00886641 0.00413977 0.0205 0.0005 
64 1 0.0140252 0.00587058 0.0205 0.0005 
66 1 0.0143006 0.00394559 0.0212499 0.00125 
67 1 0.00921421 0.000506407 0.0210208 0.0005 
68 1 0.0110277 0.00255301 0.0212499 0.00125 
69 1 0.0142734 0.000756783 0.02075 0.00075 
70 1 0.0098751 0.00419867 0.0213061 0.00075 
71 1 0.0118166 0.000499993 0.0211575 0.0005 
72 1 0.0121077 0.0011949 0.0205 0.0005 
74 1 0.0165603 0.00382185 0.0205 0.0005 
75 1 0.0162559 0.00153092 0.0214999 0.0015 
76 1 0.0230635 0.000749989 0.02075 0.00075 
77 1 0.0234998 0.00536483 0.0205 0.0005 
78 1 0.0212747 0.00100552 0.0209999 0.001 
79 1 0.02325 0.00314988 0.02075 0.00075 
81 1 0.0201437 0.00243667 0.02075 0.00075 
82 1 0.0188384 0.00347152 0.0205 0.0005 
83 1 0.0185821 0.00221181 0.02075 0.00075 
84 1 0.0214147 0.00257697 0.0205 0.0005 
85 1 0.0183572 0.000500007 0.0205 0.0005 
86 1 0.0232401 0.00154294 0.0217 0.0005 
87 1 0.0204495 0.00417584 0.0205052 0.0005 
88 1 0.0184829 0.00115791 0.0214158 0.0005 
89 1 0.0221883 0.0024735 0.0215656 0.00075 
90 1 0.0221879 0.00551557 0.02075 0.00075 
91 1 0.0215343 0.00656402 0.0205 0.0005 
92 1 0.0226454 0.00373613 0.0218637 0.0005 
93 1 0.0212233 0.00352163 0.0208914 0.0005 
94 1 0.0186823 0.00522269 0.020515 0.0005 
95 1 0.0234859 0.00437983 0.021581 0.0005 
96 1 0.022669 0.00618861 0.0217816 0.0005 
97 1 0.0179812 0.00418049 0.0205712 0.0005 
182 1 0.0232415 0.0066064 0.02075 0.00075 
1608 1 0.0160726 0.00688818 0.0216354 0.00075 
1643 1 0.0203084 0.00434011 0.0214926 0.0005 
1663 1 0.0221494 0.0052882 0.0222644 0.0005 
26 1 0.000766459 0.00720961 0.02075 0.00075 
99 1 0.00573906 0.00752418 0.0224404 0.0005 
100 1 0.00599332 0.00785641 0.0209999 0.001 
101 1 0.00151891 0.00803625 0.0213094 0.0005 
102 1 0.00458019 0.0081569 0.0205 0.0005 
103 1 0.00153054 0.010039 0.0205 0.0005 
104 1 0.00228152 0.00885354 0.02075 0.00075 
105 1 0.00666198 0.00969269 0.0213379 0.0005 
106 1 0.00350703 0.00878337 0.0205 0.0005 
107 1 0.00384996 0.00990002 0.0205 0.0005 
108 1 0.00507444 0.0104661 0.0207499 0.00075 
109 1 0.000501003 0.0102869 0.0205 0.0005 
110 1 0.0052996 0.00912012 0.0205 0.0005 
111 1 0.00102437 0.0111731 0.0205 0.0005 
112 1 0.00476402 0.0125614 0.02075 0.00075 
113 1 0.00539122 0.00936165 0.021734 0.00075 
114 1 0.00519675 0.0107303 0.0219655 0.0005 
116 1 0.00154635 0.0126261 0.0205003 0.0005 
117 1 0.00338327 0.0139386 0.0205 0.0005 
118 1 0.000500013 0.0132898 0.0205 0.0005 
119 1 0.00360734 0.012964 0.0205 0.0005 
120 1 0.00517607 0.0140587 0.02075 0.00075 
121 1 0.00196928 0.0140268 0.0209999 0.001 
122 1 0.00605525 0.0118652 0.0205 0.0005 
124 1 0.0061125 0.00970449 0.0205 0.0005 
125 1 0.00524641 0.0115622 0.0213256 0.0005 
126 1 0.00421482 0.0132881 0.0216069 0.0005 
128 1 0.006871 0.0124573 0.0205 0.0005 
129 1 0.00603554 0.0124223 0.0213302 0.0005 
130 1 0.000877494 0.0127265 0.0215519 0.00075 
131 1 0.000530472 0.0120939 0.0205 0.0005 
132 1 0.00689541 0.00894916 0.0205 0.0005 
133 1 0.0043769 0.00909431 0.0208851 0.0005 
134 1 0.000754514 0.00905198 0.0207521 0.00075 
136 1 0.00167245 0.00890001 0.0218405 0.0005 
137 1 0.00262127 0.0133324 0.0221587 0.0005 
138 1 0.000499995 0.00806293 0.0216236 0.0005 
139 1 0.00740524 0.00777593 0.0205 0.0005 
140 1 0.000499998 0.0139124 0.0214242 0.0005 
141 1 0.00767161 0.0082497 0.0216256 0.00075 
148 1 0.00793144 0.0130761 0.02075 0.00075 
1822 1 0.00315887 0.0100773 0.0223476 0.00075 
65 1 0.0142418 0.00746305 0.0205 0.0005 
142 1 0.0151523 0.00955924 0.0205 0.0005 
143 1 0.0148677 0.00856004 0.0205 0.0005 
144 1 0.0115623 0.0104271 0.0216841 0.0005 
145 1 0.014212 0.00927715 0.0207363 0.0005 
147 1 0.0133258 0.00787649 0.0205 0.0005 
149 1 0.00967533 0.00758889 0.0212499 0.00125 
150 1 0.0121204 0.00793985 0.0208442 0.00075 
151 1 0.0129591 0.00919519 0.02075 0.00075 
152 1 0.0110819 0.00856286 0.0205 0.0005 
153 1 0.0128355 0.0106976 0.02075 0.00075 
154 1 0.00803322 0.00941265 0.02075 0.00075 
155 1 0.0125704 0.0121743 0.02075 0.00075 
156 1 0.0104562 0.0115667 0.0205 0.0005 
158 1 0.0089791 0.010215 0.0205 0.0005 
159 1 0.0152638 0.0105534 0.0205 0.0005 
160 1 0.0114508 0.0116765 0.0205 0.0005 
161 1 0.00916316 0.0130421 0.0205 0.0005 
162 1 0.0113477 0.0136812 0.0205 0.0005 
163 1 0.00921457 0.0114329 0.02075 0.00075 
164 1 0.0105736 0.0128628 0.0205 0.0005 
165 1 0.009846 0.0124662 0.0210597 0.0005 
166 1 0.0113621 0.0127118 0.0214581 0.00075 
167 1 0.00939716 0.00930086 0.0205 0.0005 
168 1 0.0126133 0.0136739 0.0207499 0.00075 
169 1 0.0137217 0.011785 0.0210468 0.0005 
170 1 0.0152108 0.0119671 0.0209999 0.001 
171 1 0.00889957 0.0092867 0.0219679 0.00075 
172 1 0.0142168 0.0106715 0.0216358 0.00075 
173 1 0.0138257 0.0127844 0.0205077 0.0005 
174 1 0.0156598 0.0131359 0.0218259 0.0005 
175 1 0.00908922 0.0104222 0.0214748 0.0005 
176 1 0.00888994 0.012537 0.0213442 0.0005 
177 1 0.0104223 0.0118486 0.0216273 0.0005 
178 1 0.0158856 0.0132102 0.0205 0.0005 
179 1 0.0139616 0.0102161 0.0205 0.0005 
180 1 0.0126801 0.0133773 0.0222188 0.00075 
184 1 0.0156163 0.00946632 0.0213809 0.0005 
183 1 0.0158951 0.0075594 0.0205101 0.0005 
80 1 0.0205002 0.00742243 0.02075 0.00075 
181 1 0.0162304 0.00993329 0.0205 0.0005 
185 1 0.0235 0.00871567 0.0205 0.0005 
186 1 0.0183426 0.00729268 0.0214999 0.0015 
187 1 0.02213 0.00752284 0.0205 0.0005 
188 1 0.023071 0.00795327 0.0213927 0.00075 
189 1 0.0235 0.00971564 0.0205 0.0005 
190 1 0.021644 0.00888703 0.0209999 0.001 
191 1 0.0164539 0.00865115 0.02075 0.00075 
192 1 0.0161892 0.0109415 0.0205 0.0005 
193 1 0.0168755 0.0139326 0.02075 0.00075 
194 1 0.01994 0.00886765 0.0205 0.0005 
196 1 0.0204568 0.0103437 0.0213705 0.0005 
197 1 0.0188428 0.00976414 0.0209999 0.001 
198 1 0.0167141 0.0117926 0.0205 0.0005 
199 1 0.0175258 0.00924653 0.0204999 0.0005 
200 1 0.0229779 0.0110299 0.0209999 0.001 
201 1 0.0172464 0.00952984 0.0216849 0.00075 
202 1 0.0205205 0.00985165 0.0205004 0.0005 
203 1 0.0173977 0.0107428 0.02075 0.00075 
204 1 0.0170836 0.0127234 0.0205 0.0005 
205 1 0.0198103 0.0137329 0.0205 0.0005 
206 1 0.0210852 0.011254 0.02075 0.00075 
207 1 0.0234335 0.0125818 0.0205 0.0005 
208 1 0.0234997 0.00964958 0.0214978 0.0005 
209 1 0.020252 0.00935336 0.0213266 0.0005 
210 1 0.0221136 0.0125308 0.0207499 0.00075 
211 1 0.019758 0.011071 0.0205 0.0005 
212 1 0.0220092 0.0140273 0.02075 0.00075 
213 1 0.0205258 0.0124143 0.0205 0.0005 
214 1 0.0235 0.0135899 0.0205 0.0005 
215 1 0.0210057 0.0133128 0.0205 0.0005 
216 1 0.0215993 0.0104013 0.021876 0.00075 
217 1 0.0164465 0.0128725 0.0212562 0.0005 
218 1 0.0209473 0.0124448 0.0216892 0.00075 
219 1 0.0229662 0.0132727 0.0212838 0.0005 
220 1 0.0203951 0.0134859 0.0212727 0.0005 
221 1 0.0235 0.0123549 0.0214716 0.0005 
324 1 0.0180978 0.014071 0.0205 0.0005 
1626 1 0.0192998 0.0115146 0.0223376 0.00125 
1740 1 0.0160807 0.0120173 0.0223726 0.0005 
123 1 0.000573015 0.0142872 0.0205 0.0005 
222 1 0.0066771 0.0143362 0.0205 0.0005 
223 1 0.00523363 0.0154962 0.0205 0.0005 
224 1 0.00253587 0.0153233 0.0205 0.0005 
225 1 0.00240603 0.0163199 0.0205 0.0005 
226 1 0.00675866 0.015916 0.0212499 0.00125 
227 1 0.00155704 0.0155335 0.0205 0.0005 
228 1 0.00050001 0.0152528 0.0207496 0.0005 
229 1 0.000500329 0.0162217 0.0205 0.0005 
230 1 0.00463038 0.0185962 0.0205 0.0005 
231 1 0.00270043 0.0172756 0.0205 0.0005 
232 1 0.00126716 0.018 0.0212499 0.00125 
233 1 0.00604207 0.0183842 0.0205005 0.0005 
234 1 0.00548432 0.0194747 0.0207502 0.00075 
235 1 0.000596068 0.019436 0.0205 0.0005 
236 1 0.00492687 0.017406 0.02075 0.00075 
237 1 0.00622548 0.0179144 0.0213653 0.0005 
238 1 0.00554749 0.0172646 0.0218257 0.0005 
239 1 0.00615157 0.0173838 0.0205 0.0005 
240 1 0.00281727 0.0191766 0.0205 0.0005 
241 1 0.000500176 0.0159208 0.0214938 0.0005 
242 1 0.000512567 0.0201105 0.0212335 0.0005 
243 1 0.0038179 0.0191835 0.0205 0.0005 
244 1 0.00438244 0.0200087 0.0204999 0.0005 
245 1 0.00650084 0.0173883 0.0221706 0.0005 
246 1 0.00339013 0.0202044 0.0205002 0.0005 
247 1 0.00197973 0.020318 0.021 0.001 
248 1 0.00552806 0.0202265 0.0217482 0.0005 
249 1 0.00700368 0.0206788 0.0205 0.0005 
250 1 0.00352888 0.0182383 0.0206513 0.0005 
256 1 0.00745598 0.0191632 0.0212499 0.00125 
255 1 0.00775476 0.0174093 0.0222118 0.00075 
392 1 0.00571209 0.0209575 0.02075 0.00075 
443 1 0.00423564 0.0212243 0.0207499 0.00075 
146 1 0.00809381 0.0142902 0.0205 0.0005 
252 1 0.011787 0.0145792 0.0204996 0.0005 
254 1 0.0133418 0.0146629 0.0205 0.0005 
257 1 0.0125392 0.0150754 0.0213652 0.00075 
258 1 0.0114318 0.0155139 0.0204998 0.0005 
259 1 0.0080811 0.0173305 0.0207499 0.00075 
260 1 0.0136772 0.0154839 0.0216857 0.0005 
261 1 0.00833314 0.0160643 0.0205 0.0005 
262 1 0.0137232 0.0155893 0.0205 0.0005 
263 1 0.0125682 0.0159772 0.0205 0.0005 
264 1 0.0104129 0.0187776 0.0206011 0.0005 
265 1 0.00928218 0.020033 0.0205 0.0005 
267 1 0.0141307 0.0171171 0.0212499 0.00125 
268 1 0.0113932 0.0185651 0.0204999 0.0005 
269 1 0.0105005 0.0161036 0.0205 0.0005 
270 1 0.0120609 0.019689 0.02075 0.00075 
271 1 0.0124322 0.0170583 0.0205 0.0005 
272 1 0.0146806 0.0194368 0.0205 0.0005 
273 1 0.0106704 0.0170893 0.0205 0.0005 
274 1 0.0108362 0.0196783 0.0205 0.0005 
275 1 0.0100438 0.0207416 0.0204999 0.0005 
276 1 0.0129032 0.0199684 0.0216304 0.0005 
277 1 0.0111146 0.0206404 0.0205 0.0005 
278 1 0.0122121 0.021184 0.02075 0.00075 
279 1 0.0140064 0.0208622 0.0205 0.0005 
280 1 0.0115806 0.0175828 0.0204999 0.0005 
281 1 0.0125851 0.0182836 0.0207499 0.00075 
282 1 0.0130989 0.0203392 0.0205 0.0005 
283 1 0.0140103 0.0186941 0.0205 0.0005 
284 1 0.0132328 0.0193317 0.0205 0.0005 
285 1 0.0139264 0.0199523 0.0209068 0.0005 
286 1 0.0136998 0.0190919 0.0213633 0.0005 
287 1 0.0127736 0.0187936 0.0221479 0.00075 
288 1 0.0121683 0.0164684 0.0212737 0.0005 
289 1 0.0148997 0.0204126 0.0205 0.0005 
290 1 0.0146534 0.018802 0.0212818 0.0005 
291 1 0.00945535 0.0190481 0.0205 0.0005 
292 1 0.010795 0.0179433 0.0210052 0.0005 
293 1 0.014284 0.0209698 0.0214546 0.0005 
294 1 0.0132856 0.0208687 0.0213275 0.0005 
295 1 0.00897043 0.0181731 0.0205 0.0005 
296 1 0.0152478 0.0186132 0.0205 0.0005 
297 1 0.00947134 0.0167675 0.0207499 0.00075 
298 1 0.0112004 0.0190011 0.0213789 0.0005 
300 1 0.0116275 0.0181104 0.0215344 0.0005 
301 1 0.0114881 0.0165132 0.0205 0.0005 
302 1 0.00849531 0.0163703 0.0214381 0.0005 
303 1 0.0118492 0.0204087 0.0217498 0.0005 
304 1 0.0113939 0.017096 0.0213532 0.0005 
305 1 0.0141504 0.0186318 0.0221293 0.0005 
306 1 0.0152645 0.0157799 0.0205 0.0005 
307 1 0.0105325 0.0165893 0.0213859 0.0005 
308 1 0.0123946 0.0173865 0.0215992 0.0005 
309 1 0.0126252 0.0209494 0.0220745 0.0005 
310 1 0.0128311 0.0161921 0.0219696 0.0005 
311 1 0.00993302 0.0179022 0.0205 0.0005 
312 1 0.0108025 0.0176326 0.0219557 0.0005 
314 1 0.0115457 0.0167704 0.0222864 0.0005 
315 1 0.0103726 0.0201623 0.0218439 0.001 
316 1 0.0156083 0.0176804 0.0205 0.0005 
317 1 0.0157775 0.0199337 0.0205 0.0005 
318 1 0.0115736 0.0191089 0.0223003 0.0005 
319 1 0.0113124 0.0159635 0.0213848 0.0005 
320 1 0.0157067 0.0166842 0.0204999 0.0005 
321 1 0.00882197 0.0199267 0.0220354 0.0005 
322 1 0.0138604 0.0200845 0.0218959 0.0005 
323 1 0.00959388 0.0169321 0.021983 0.0005 
331 1 0.0158611 0.0169346 0.0214556 0.0005 
1603 1 0.00953488 0.0153025 0.0208551 0.0005 
457 1 0.0153218 0.0212415 0.0219163 0.0005 
325 1 0.0164456 0.0144177 0.0218188 0.0005 
326 1 0.0190519 0.0143965 0.0205 0.0005 
327 1 0.0234999 0.0145899 0.0205 0.0005 
328 1 0.018701 0.015227 0.021493 0.0005 
329 1 0.0174795 0.0150526 0.0221144 0.0005 
330 1 0.0177991 0.0146565 0.0212535 0.0005 
332 1 0.0234992 0.0144946 0.0214954 0.0005 
333 1 0.0180863 0.0152478 0.0205 0.0005 
334 1 0.0221995 0.0150785 0.0214015 0.0005 
336 1 0.0226327 0.0150884 0.0205 0.0005 
337 1 0.0166751 0.0156534 0.0209999 0.001 
338 1 0.0181611 0.0160079 0.0211455 0.0005 
339 1 0.0189396 0.015925 0.0205018 0.0005 
340 1 0.0178885 0.0172232 0.0213399 0.0005 
341 1 0.0178017 0.0166834 0.0205002 0.0005 
342 1 0.0172371 0.0185276 0.0205 0.0005 
343 1 0.0222743 0.0163144 0.02075 0.00075 
344 1 0.0179412 0.0178174 0.0205 0.0005 
345 1 0.0189991 0.0172004 0.02075 0.00075 
346 1 0.0235 0.0177095 0.0205 0.0005 
347 1 0.0223275 0.0180765 0.02075 0.00075 
348 1 0.0211328 0.0167582 0.0205 0.0005 
349 1 0.0200308 0.0179727 0.0205 0.0005 
350 1 0.0182041 0.0187823 0.0205 0.0005 
351 1 0.0191352 0.0184176 0.0205 0.0005 
352 1 0.0235 0.0187765 0.0205 0.0005 
353 1 0.0195017 0.0188535 0.0216127 0.00075 
354 1 0.0167963 0.0173826 0.0207506 0.00075 
355 1 0.020793 0.0189314 0.02075 0.00075 
356 1 0.0211448 0.0177582 0.0205 0.0005 
357 1 0.0196378 0.0194066 0.0205 0.0005 
358 1 0.0234998 0.0156309 0.0205013 0.0005 
359 1 0.0201329 0.016737 0.0205 0.0005 
360 1 0.0182858 0.0191452 0.0216629 0.0005 
361 1 0.0203867 0.0203756 0.02075 0.00075 
362 1 0.0185446 0.0199588 0.02075 0.00075 
363 1 0.0234981 0.0166864 0.0205 0.0005 
364 1 0.0225 0.0201907 0.0214999 0.0015 
366 1 0.0204932 0.0173946 0.0211722 0.0005 
367 1 0.0232128 0.0172342 0.0216198 0.00075 
368 1 0.017311 0.0192218 0.0214532 0.0005 
369 1 0.0235 0.0184375 0.0214407 0.0005 
370 1 0.0194802 0.0201027 0.0215662 0.0005 
371 1 0.0177867 0.0183398 0.0213385 0.0005 
372 1 0.0208101 0.0210481 0.0221394 0.0005 
373 1 0.0193261 0.0211288 0.021982 0.0005 
374 1 0.0174036 0.0195137 0.0205 0.0005 
375 1 0.0169254 0.0210211 0.0212499 0.00125 
376 1 0.016238 0.0184735 0.0205 0.0005 
377 1 0.0232473 0.0157025 0.0217254 0.00075 
378 1 0.0200386 0.0204393 0.0223244 0.0005 
379 1 0.016496 0.0193576 0.0208897 0.0005 
380 1 0.0207422 0.018627 0.0219612 0.0005 
381 1 0.0205839 0.0196518 0.0217498 0.0005 
382 1 0.0235 0.0187123 0.0224022 0.0005 
383 1 0.0196827 0.01698 0.021773 0.0005 
385 1 0.0168288 0.0168556 0.0218837 0.0005 
386 1 0.0191345 0.0161626 0.0214581 0.0005 
388 1 0.0201206 0.0178454 0.0220166 0.0005 
390 1 0.0066973 0.0215521 0.021713 0.00075 
391 1 0.00697006 0.0216812 0.0205 0.0005 
393 1 0.00301352 0.021303 0.0205 0.0005 
394 1 0.00510682 0.0220854 0.0205 0.0005 
395 1 0.00050001 0.0215542 0.0205 0.0005 
396 1 0.00203992 0.022049 0.02075 0.00075 
397 1 0.00571526 0.0253088 0.0205 0.0005 
398 1 0.00634025 0.0242542 0.02075 0.00075 
399 1 0.00470325 0.0234409 0.0210002 0.001 
400 1 0.000749979 0.0228145 0.02075 0.00075 
401 1 0.00139601 0.0259756 0.0214234 0.0005 
402 1 0.00049998 0.0250164 0.0205 0.0005 
403 1 0.000507377 0.0260163 0.0204999 0.0005 
404 1 0.00747583 0.0225438 0.0205 0.0005 
405 1 0.00274008 0.025666 0.0205 0.0005 
406 1 0.00603068 0.0262641 0.0205 0.0005 
407 1 0.00354527 0.0247316 0.02075 0.00075 
408 1 0.000500961 0.0240136 0.0205 0.0005 
409 1 0.00705583 0.0255983 0.0207609 0.00075 
410 1 0.00372254 0.0223361 0.0204998 0.0005 
411 1 0.000500199 0.0218092 0.0214669 0.0005 
412 1 0.00182586 0.0245228 0.0209999 0.001 
413 1 0.00625828 0.0226782 0.02075 0.00075 
414 1 0.00050001 0.0244094 0.0216922 0.0005 
415 1 0.00684004 0.0267999 0.0210291 0.0005 
416 1 0.00300431 0.0269098 0.02075 0.00075 
417 1 0.00777724 0.026591 0.0205 0.0005 
418 1 0.00520183 0.0268234 0.0205 0.0005 
419 1 0.000503731 0.0254705 0.0214057 0.0005 
420 1 0.00733604 0.0274885 0.0205 0.0005 
421 1 0.00482446 0.0248512 0.0205 0.0005 
422 1 0.000521858 0.0252266 0.0223872 0.0005 
423 1 0.000536936 0.0262903 0.0220294 0.0005 
424 1 0.00177881 0.0259479 0.0205 0.0005 
426 1 0.00297001 0.0231987 0.0210013 0.00075 
427 1 0.00736202 0.0263827 0.0220855 0.00075 
428 1 0.00127447 0.026826 0.0205 0.0005 
429 1 0.00429545 0.0256997 0.0205 0.0005 
430 1 0.0035214 0.0258739 0.0212578 0.0005 
431 1 0.00629991 0.0271873 0.0218512 0.0005 
432 1 0.00505896 0.0218323 0.0214673 0.0005 
433 1 0.00192575 0.0275849 0.0205 0.0005 
434 1 0.0043155 0.0273412 0.0212625 0.0005 
435 1 0.00421011 0.026696 0.0205 0.0005 
436 1 0.00611438 0.0234246 0.0220435 0.00075 
437 1 0.00135065 0.0272217 0.0214269 0.0005 
438 1 0.000499929 0.0267728 0.0211539 0.0005 
439 1 0.00231165 0.026748 0.0220706 0.00075 
440 1 0.00521881 0.0274659 0.0216797 0.0005 
442 1 0.00708253 0.0277135 0.0214408 0.0005 
444 1 0.00324105 0.0214552 0.0215173 0.0005 
445 1 0.00603853 0.0277176 0.0207499 0.00075 
446 1 0.00727404 0.0234118 0.021446 0.0005 
447 1 0.000500271 0.0274948 0.0218772 0.0005 
448 1 0.00765884 0.0245351 0.0204999 0.0005 
450 1 0.00381653 0.0278371 0.0205 0.0005 
451 1 0.000749967 0.0280838 0.02075 0.00075 
453 1 0.00757197 0.023539 0.0205 0.0005 
454 1 0.00481909 0.0278346 0.0205 0.0005 
455 1 0.00748026 0.0281385 0.0222539 0.0005 
456 1 0.00381786 0.0222733 0.021505 0.0005 
594 1 0.00281907 0.0281204 0.0205 0.0005 
606 1 0.00234736 0.0282651 0.021653 0.00075 
579 1 0.00794346 0.028283 0.0205 0.0005 
629 1 0.00413524 0.0281813 0.0221449 0.0005 
313 1 0.0113781 0.0213108 0.0216724 0.0005 
458 1 0.0102444 0.0217248 0.0219192 0.0005 
459 1 0.0135413 0.0217475 0.0205 0.0005 
460 1 0.0144888 0.0219266 0.0218063 0.0005 
461 1 0.00864602 0.0214806 0.0212499 0.00125 
462 1 0.00996823 0.0226231 0.0213449 0.0005 
463 1 0.00834075 0.0252664 0.0205 0.0005 
464 1 0.00869883 0.0262026 0.0205 0.0005 
465 1 0.0106819 0.021787 0.02075 0.00075 
466 1 0.00897749 0.0236952 0.0209999 0.001 
467 1 0.00956413 0.0253249 0.02075 0.00075 
468 1 0.0108096 0.0245042 0.0216011 0.00075 
469 1 0.0103884 0.0262307 0.0205 0.0005 
470 1 0.0102507 0.0243108 0.0204999 0.0005 
471 1 0.013812 0.0238883 0.0204999 0.0005 
473 1 0.0132957 0.0255102 0.0205 0.0005 
474 1 0.0148766 0.0239991 0.0205 0.0005 
475 1 0.0130464 0.0232451 0.0205 0.0005 
476 1 0.0127098 0.0223035 0.0204999 0.0005 
477 1 0.0116199 0.0253857 0.0212418 0.0005 
478 1 0.0122857 0.0238942 0.0205 0.0005 
479 1 0.0130193 0.0220711 0.0216885 0.00075 
480 1 0.0113853 0.0260144 0.0205 0.0005 
481 1 0.0127585 0.0250198 0.0216318 0.00075 
482 1 0.0142291 0.024914 0.0210798 0.00075 
483 1 0.0122725 0.0252321 0.0204999 0.0005 
484 1 0.0130509 0.024538 0.0205 0.0005 
485 1 0.0133145 0.0239312 0.0213675 0.0005 
486 1 0.0152167 0.0254146 0.0204999 0.0005 
487 1 0.0108981 0.0232713 0.02075 0.00075 
488 1 0.015254 0.0230728 0.0205 0.0005 
489 1 0.011413 0.0243826 0.0205 0.0005 
490 1 0.0141256 0.0227611 0.02094 0.00075 
491 1 0.0141601 0.0260216 0.0205 0.0005 
492 1 0.0107995 0.0251723 0.0205 0.0005 
493 1 0.0110691 0.0269633 0.0205 0.0005 
494 1 0.0139788 0.0258963 0.0218121 0.0005 
495 1 0.0127417 0.0270193 0.0212761 0.00125 
496 1 0.0154445 0.0242127 0.0213964 0.0005 
497 1 0.0147162 0.0268601 0.0205 0.0005 
498 1 0.0148064 0.026041 0.0212628 0.0005 
499 1 0.0145018 0.0270132 0.0214656 0.0005 
500 1 0.0158705 0.02645 0.0207501 0.00075 
501 1 0.0150843 0.0216233 0.02075 0.00075 
502 1 0.0145478 0.0237889 0.0215242 0.0005 
503 1 0.0151291 0.0256009 0.0221007 0.0005 
504 1 0.0126059 0.023225 0.0213975 0.0005 
505 1 0.010609 0.025707 0.0213232 0.0005 
506 1 0.0154261 0.0275223 0.0212199 0.0005 
507 1 0.0110893 0.0264582 0.0217759 0.0005 
508 1 0.013708 0.0232659 0.0220045 0.0005 
509 1 0.0119153 0.0239476 0.0214273 0.0005 
510 1 0.0100136 0.0253662 0.0220604 0.0005 
511 1 0.0154137 0.0267693 0.0218787 0.0005 
512 1 0.00928112 0.0246069 0.0221517 0.0005 
513 1 0.00903898 0.0255339 0.0218648 0.0005 
514 1 0.0118884 0.022555 0.0210118 0.0005 
515 1 0.0157267 0.0245545 0.0205 0.0005 
516 1 0.0157423 0.0228305 0.0218979 0.001 
517 1 0.0111648 0.0279587 0.0205 0.0005 
518 1 0.0110555 0.0274651 0.021869 0.0005 
519 1 0.0143824 0.0280376 0.0207564 0.00075 
520 1 0.0147923 0.0278487 0.0219388 0.0005 
522 1 0.00856067 0.0233921 0.0224086 0.0005 
523 1 0.0144029 0.0247346 0.0223046 0.0005 
525 1 0.0160468 0.0223805 0.0204999 0.0005 
526 1 0.0192085 0.0213039 0.0207499 0.00075 
527 1 0.0213654 0.0214995 0.0205 0.0005 
528 1 0.0201509 0.0215087 0.0215451 0.0005 
529 1 0.0188873 0.022015 0.0217265 0.0005 
530 1 0.0165327 0.0251749 0.0217869 0.001 
532 1 0.0203799 0.0216829 0.0205 0.0005 
533 1 0.021127 0.0217036 0.0214494 0.0005 
534 1 0.0235 0.0219228 0.0214954 0.0005 
535 1 0.0161145 0.02765 0.0204999 0.0005 
536 1 0.0235 0.0220179 0.0205 0.0005 
537 1 0.0163428 0.026595 0.0222365 0.0005 
538 1 0.0222225 0.0226244 0.021 0.001 
539 1 0.0201965 0.0248278 0.0205 0.0005 
540 1 0.0166688 0.0237718 0.0207499 0.00075 
541 1 0.0195587 0.0257706 0.0205 0.0005 
542 1 0.0182377 0.0224474 0.02075 0.00075 
543 1 0.021509 0.0238453 0.0204999 0.0005 
544 1 0.0234996 0.026084 0.0205 0.0005 
545 1 0.0183515 0.0254358 0.0207499 0.00075 
546 1 0.0232501 0.0240185 0.0207499 0.00075 
547 1 0.0235 0.0231347 0.0215978 0.0005 
548 1 0.0235 0.0270983 0.0205 0.0005 
549 1 0.0230177 0.0253532 0.0213937 0.00075 
550 1 0.0218445 0.0255576 0.0205 0.0005 
551 1 0.0181763 0.023946 0.0207499 0.00075 
552 1 0.022181 0.0246159 0.0205 0.0005 
553 1 0.0170225 0.0225993 0.0205 0.0005 
554 1 0.0169873 0.0257971 0.0205 0.0005 
555 1 0.0174736 0.0231337 0.0218431 0.00075 
556 1 0.0224054 0.0266147 0.0208609 0.00075 
557 1 0.0172774 0.0248347 0.0205 0.0005 
558 1 0.0200522 0.0232308 0.0212499 0.00125 
559 1 0.0211973 0.0247953 0.0204999 0.0005 
560 1 0.0182075 0.0246975 0.0220476 0.00075 
561 1 0.0176409 0.0272373 0.0212495 0.00125 
562 1 0.0191167 0.026669 0.0205 0.0005 
563 1 0.0207314 0.025829 0.0214818 0.001 
564 1 0.0193252 0.026348 0.0214238 0.0005 
565 1 0.021372 0.0226396 0.0222354 0.0005 
566 1 0.0192276 0.0245798 0.0205 0.0005 
567 1 0.023486 0.0271153 0.0214997 0.0005 
568 1 0.0235 0.0262907 0.0220652 0.0005 
569 1 0.0194176 0.0251189 0.0213205 0.0005 
570 1 0.0185664 0.0258955 0.0218922 0.0005 
571 1 0.0227735 0.0277854 0.0205 0.0005 
572 1 0.0219227 0.0267019 0.0220117 0.0005 
573 1 0.0215245 0.0274247 0.0205 0.0005 
574 1 0.0200353 0.0279559 0.0212499 0.00125 
575 1 0.0186088 0.0235202 0.022196 0.0005 
576 1 0.0194803 0.0259092 0.0223097 0.0005 
577 1 0.0234962 0.0281027 0.021342 0.0005 
578 1 0.0190373 0.0268506 0.0222389 0.0005 
531 1 0.0166734 0.0238522 0.0224802 0.0005 
580 1 0.0005 0.0311585 0.0205 0.0005 
581 1 0.00356759 0.0310506 0.0205 0.0005 
582 1 0.00158703 0.0330877 0.02075 0.00075 
583 1 0.00299611 0.0293323 0.0207502 0.00075 
584 1 0.00518065 0.0324757 0.0207501 0.00075 
585 1 0.00050002 0.0332788 0.0213855 0.0005 
586 1 0.00158924 0.0298525 0.0207499 0.00075 
587 1 0.00305432 0.0326228 0.0205 0.0005 
588 1 0.00220825 0.0314704 0.0209999 0.001 
589 1 0.00189902 0.0285846 0.0205 0.0005 
590 1 0.000501064 0.0292904 0.0205 0.0005 
591 1 0.00659201 0.0335477 0.0204999 0.0005 
592 1 0.0040108 0.0330088 0.0205 0.0005 
593 1 0.00496659 0.0336818 0.0205 0.0005 
595 1 0.00482053 0.0309665 0.0207499 0.00075 
596 1 0.00520991 0.0296218 0.0205 0.0005 
597 1 0.00627144 0.0313471 0.02075 0.00075 
598 1 0.00393693 0.0301184 0.0205 0.0005 
599 1 0.00640182 0.0325661 0.0204999 0.0005 
600 1 0.00757149 0.0342827 0.02075 0.00075 
601 1 0.00420575 0.029137 0.0205 0.0005 
602 1 0.00688442 0.0294594 0.02125 0.00125 
603 1 0.00422342 0.0305353 0.0220791 0.00075 
604 1 0.00536475 0.0302467 0.0216149 0.0005 
605 1 0.00502713 0.0287245 0.0213527 0.00075 
607 1 0.00714719 0.0318585 0.0214807 0.0005 
608 1 0.00608778 0.0308786 0.0218942 0.0005 
609 1 0.000751668 0.0321059 0.0217371 0.00075 
610 1 0.00329265 0.0304458 0.0212474 0.0005 
611 1 0.00540861 0.0316248 0.0216369 0.0005 
612 1 0.000520429 0.0321616 0.0205 0.0005 
613 1 0.00385055 0.0320188 0.0212711 0.00075 
614 1 0.000753071 0.0306062 0.0217684 0.00075 
615 1 0.00380043 0.0285076 0.0212439 0.0005 
616 1 0.00402644 0.0294668 0.0214607 0.0005 
617 1 0.000750017 0.0291081 0.0218459 0.00075 
618 1 0.00148453 0.0345123 0.0205 0.0005 
620 1 0.00195017 0.0302811 0.0219228 0.0005 
621 1 0.00503229 0.0295708 0.0222726 0.0005 
622 1 0.00727649 0.0320818 0.0204999 0.0005 
623 1 0.00706963 0.03102 0.0220202 0.0005 
624 1 0.00197934 0.0326804 0.0218686 0.0005 
625 1 0.00764603 0.0344608 0.0219849 0.0005 
626 1 0.0074717 0.0330623 0.0204999 0.0005 
627 1 0.00254593 0.02947 0.0219226 0.0005 
628 1 0.000500015 0.0337434 0.0205 0.0005 
631 1 0.00583717 0.0345433 0.02075 0.00075 
632 1 0.000902515 0.0344326 0.0216488 0.00075 
633 1 0.00673894 0.0346523 0.0216087 0.0005 
634 1 0.000500002 0.0347434 0.0205 0.0005 
635 1 0.00577522 0.0346415 0.021999 0.0005 
636 1 0.00528833 0.0310633 0.022466 0.0005 
766 1 0.00690266 0.0353086 0.0205 0.0005 
751 1 0.0047431 0.0351218 0.0205 0.0005 
789 1 0.00740868 0.0353562 0.0213721 0.0005 
1659 1 0.00719463 0.0333095 0.0221993 0.00075 
1618 1 0.00259954 0.0338949 0.022078 0.0005 
644 1 0.00796275 0.0310677 0.0207501 0.00075 
1675 1 0.00246775 0.0317234 0.0224603 0.0005 
702 1 0.00798609 0.0314159 0.0219505 0.0005 
521 1 0.0109794 0.0284611 0.0214612 0.0005 
637 1 0.00881726 0.0342471 0.0208589 0.0005 
638 1 0.0129034 0.0288828 0.0219986 0.00075 
639 1 0.00867616 0.0289639 0.0205001 0.0005 
640 1 0.0084849 0.0299515 0.0205 0.0005 
641 1 0.0129378 0.0318444 0.02075 0.00075 
642 1 0.0106665 0.0316096 0.0205 0.0005 
643 1 0.0117176 0.0319808 0.0205 0.0005 
645 1 0.0112074 0.0328416 0.0205 0.0005 
646 1 0.0122259 0.032842 0.0205 0.0005 
647 1 0.0103556 0.0306543 0.0205 0.0005 
648 1 0.0132659 0.0330424 0.0205 0.0005 
649 1 0.0094508 0.0302105 0.0205 0.0005 
650 1 0.0129906 0.0298575 0.0205 0.0005 
651 1 0.0104888 0.0286957 0.0205 0.0005 
652 1 0.00823289 0.0324457 0.021283 0.00075 
653 1 0.0146673 0.0291486 0.0217744 0.00075 
654 1 0.011767 0.0305673 0.021 0.001 
655 1 0.0101168 0.0300461 0.0215657 0.00075 
656 1 0.0131847 0.0285282 0.0205 0.0005 
657 1 0.0106627 0.0296805 0.0205 0.0005 
658 1 0.00889882 0.0304443 0.0213025 0.0005 
659 1 0.00941577 0.0314394 0.0207503 0.00075 
660 1 0.012709 0.0338741 0.0205 0.0005 
661 1 0.0144771 0.0292575 0.0205 0.0005 
662 1 0.0117226 0.0337094 0.0205 0.0005 
663 1 0.0156263 0.0296813 0.0207516 0.00075 
664 1 0.0141844 0.030642 0.0209998 0.001 
665 1 0.0120034 0.0288514 0.02075 0.00075 
666 1 0.0148308 0.0327829 0.0212499 0.00125 
667 1 0.0155159 0.0304644 0.0217227 0.0005 
668 1 0.00964257 0.0292286 0.0205 0.0005 
669 1 0.0133848 0.0337689 0.0212294 0.0005 
670 1 0.00982181 0.0331229 0.0210011 0.001 
671 1 0.0136089 0.0292573 0.0210371 0.0005 
672 1 0.0125734 0.0329479 0.0217139 0.00075 
673 1 0.00896191 0.0316366 0.0219036 0.0005 
674 1 0.0118106 0.031979 0.0215053 0.0005 
675 1 0.010819 0.0320472 0.021386 0.0005 
676 1 0.0129885 0.0301027 0.0217372 0.0005 
677 1 0.0121555 0.0340949 0.0213148 0.0005 
678 1 0.0155299 0.028461 0.0204999 0.0005 
679 1 0.00842222 0.0334015 0.0205 0.0005 
680 1 0.0125179 0.0308016 0.0223013 0.0005 
681 1 0.00834005 0.0336687 0.0215212 0.0005 
682 1 0.00905006 0.0294558 0.0212873 0.0005 
683 1 0.0150214 0.0312554 0.0220827 0.0005 
684 1 0.00993163 0.0318659 0.0218149 0.0005 
685 1 0.00952356 0.0343453 0.0218356 0.0005 
686 1 0.0111376 0.0329869 0.0221469 0.00075 
687 1 0.0119893 0.0338935 0.0222862 0.0005 
688 1 0.010717 0.0340878 0.0217206 0.0005 
689 1 0.0143872 0.0343009 0.0205 0.0005 
690 1 0.014175 0.0343856 0.0215018 0.0005 
691 1 0.0110676 0.0344669 0.0205 0.0005 
692 1 0.0131463 0.0344489 0.0219231 0.0005 
693 1 0.0120568 0.0346716 0.0205 0.0005 
694 1 0.0133339 0.0349272 0.0207504 0.00075 
695 1 0.0110358 0.0349746 0.0213824 0.0005 
696 1 0.00990682 0.0348539 0.0207579 0.00075 
697 1 0.00858738 0.0346827 0.0217295 0.0005 
698 1 0.0157485 0.0351103 0.0212499 0.00125 