ITEM: TIMESTEP
300000
ITEM: NUMBER OF ATOMS
2549
ITEM: BOX BOUNDS mm mm mm
-2.4e-06 0.0240024
-7.8e-06 0.0780078
-3e-06 0.030003
ITEM: ATOMS id type x y z radius 
324 1 0.00798037 0.00400713 0.0219997 0.002 
291 1 0.00285484 0.00151659 0.0214997 0.0015 
368 1 0.000500125 0.0014995 0.0205 0.0005 
784 1 0.00558184 0.00335738 0.02075 0.00075 
32 1 0.00526005 0.000502982 0.0205 0.0005 
241 1 0.00472275 0.0024804 0.0205 0.0005 
815 1 0.00123927 0.00217336 0.0205 0.0005 
448 1 0.00384044 0.00295106 0.0205 0.0005 
300 1 0.000536849 0.000500097 0.0205001 0.0005 
442 1 0.00104343 0.00358446 0.0209999 0.001 
816 1 0.006019 0.00492864 0.0205 0.0005 
710 1 0.00426009 0.000500233 0.0205 0.0005 
527 1 0.000501012 0.00489151 0.0205 0.0005 
256 1 0.000780589 0.00616279 0.0205 0.0005 
870 1 0.00774698 0.00599557 0.0205 0.0005 
100 1 0.00484258 0.00265881 0.0214766 0.0005 
153 1 0.00512635 0.00156545 0.0205 0.0005 
486 1 0.00362745 0.00510866 0.0222497 0.00225 
722 1 0.00146708 0.00515878 0.0205 0.0005 
864 1 0.00476238 0.00097931 0.0212254 0.0005 
503 1 0.00050001 0.00489112 0.0214999 0.0005 
561 1 0.00629027 0.0019468 0.02075 0.00075 
501 1 0.00576429 0.000551014 0.0213673 0.0005 
64 1 0.00636718 0.0063304 0.0209999 0.001 
954 1 0.00626004 0.000500172 0.0205 0.0005 
75 1 0.00175295 0.00690745 0.0207498 0.00075 
390 1 0.00049999 0.00588822 0.0214196 0.0005 
887 1 0.00669985 0.00674964 0.0224012 0.0005 
380 1 0.00494183 0.00681748 0.0205 0.0005 
587 1 0.00049999 0.00397964 0.022341 0.0005 
370 1 0.00743056 0.000863036 0.0207496 0.00075 
28 1 0.000749843 0.000749926 0.0217068 0.00075 
842 1 0.0062864 0.00580141 0.0224012 0.0005 
220 1 0.00729966 0.000749692 0.0222391 0.00075 
1070 1 0.0078556 0.00674832 0.0218197 0.00075 
1492 1 0.000499987 0.00496738 0.0224969 0.0005 
307 1 0.00785639 0.0020112 0.0204998 0.0005 
274 1 0.00758399 0.00705056 0.0204999 0.0005 
1195 1 0.0082302 0.00159629 0.0213727 0.0005 
121 1 0.00874629 0.00595859 0.0205 0.0005 
228 1 0.00950352 0.00530514 0.0205 0.0005 
490 1 0.0100166 0.00444623 0.0205 0.0005 
199 1 0.0116474 0.003249 0.0205 0.0005 
395 1 0.0108065 0.0027036 0.0205004 0.0005 
474 1 0.013963 0.00177434 0.0207498 0.00075 
282 1 0.0104727 0.00130814 0.0205 0.0005 
590 1 0.0098792 0.000499991 0.0204999 0.0005 
176 1 0.0134441 0.000500416 0.0205 0.0005 
289 1 0.0110621 0.000500058 0.0205 0.0005 
362 1 0.00887925 0.000500144 0.0204999 0.0005 
783 1 0.0108964 0.00396652 0.0204999 0.0005 
51 1 0.013396 0.00291923 0.0205 0.0005 
233 1 0.00967357 0.00223674 0.02075 0.00075 
217 1 0.0109321 0.00496578 0.0204999 0.0005 
549 1 0.0105111 0.00464474 0.0213482 0.0005 
126 1 0.0126391 0.004672 0.0214998 0.0015 
676 1 0.0103297 0.000749927 0.0216387 0.00075 
209 1 0.0139417 0.00581326 0.0204998 0.0005 
730 1 0.00870671 0.00148506 0.0205 0.0005 
764 1 0.010533 0.00643427 0.0213639 0.00125 
311 1 0.0146581 0.00641845 0.0216703 0.001 
763 1 0.00990259 0.00345274 0.0205 0.0005 
66 1 0.0143669 0.00481826 0.0205 0.0005 
61 1 0.0150375 0.00556002 0.0205 0.0005 
108 1 0.0150511 0.00337616 0.0212496 0.00125 
89 1 0.00843653 0.000499915 0.0213965 0.0005 
155 1 0.012035 0.00173089 0.0212796 0.00125 
178 1 0.0150588 0.000750034 0.02075 0.00075 
364 1 0.0108295 0.00333716 0.0215776 0.00075 
895 1 0.0113499 0.000500074 0.0223188 0.0005 
598 1 0.0129111 0.000500052 0.0221629 0.0005 
171 1 0.0129738 0.00677189 0.02075 0.00075 
581 1 0.0122193 0.00668295 0.0224176 0.00075 
161 1 0.0232501 0.00074974 0.0207495 0.00075 
159 1 0.0226973 0.00334238 0.0204998 0.0005 
204 1 0.0234976 0.00474806 0.0205 0.0005 
219 1 0.0215306 0.000999547 0.0209997 0.001 
333 1 0.0232501 0.003952 0.0214404 0.00075 
142 1 0.0232504 0.0022495 0.0207497 0.00075 
200 1 0.0204656 0.00236538 0.0207499 0.00075 
340 1 0.0218144 0.00434458 0.0207496 0.00075 
452 1 0.0235001 0.00580588 0.0204998 0.0005 
518 1 0.0193435 0.00076126 0.02075 0.00075 
185 1 0.0166081 0.00537764 0.0212499 0.00125 
31 1 0.0170451 0.00149966 0.0214994 0.0015 
123 1 0.0229103 0.000999533 0.0224472 0.001 
273 1 0.0218844 0.00285287 0.0216612 0.001 
113 1 0.0167912 0.00325993 0.0205 0.0005 
544 1 0.0185985 0.00409673 0.0209999 0.001 
577 1 0.0232502 0.00543473 0.0216668 0.00075 
652 1 0.0183424 0.005454 0.0215849 0.0005 
290 1 0.0189661 0.00240414 0.02075 0.00075 
281 1 0.0202023 0.00362612 0.0215186 0.00075 
57 1 0.0203422 0.00587159 0.0214997 0.0015 
143 1 0.0226334 0.00525532 0.0205 0.0005 
853 1 0.0184434 0.00550273 0.0205 0.0005 
106 1 0.0220995 0.00496472 0.0217963 0.0005 
1012 1 0.0182863 0.00669514 0.0218951 0.00075 
109 1 0.0185991 0.00649157 0.0205 0.0005 
6 1 0.022581 0.00690722 0.0209991 0.001 
998 1 0.000749871 0.00712803 0.0218429 0.00075 
1359 1 0.0029418 0.00727315 0.0205 0.0005 
588 1 0.00394291 0.00722345 0.0205 0.0005 
360 1 0.00583626 0.0117703 0.0205 0.0005 
154 1 0.00471347 0.00817632 0.0207499 0.00075 
13 1 0.000520071 0.0071414 0.0205 0.0005 
879 1 0.0058093 0.00762982 0.0204999 0.0005 
137 1 0.00059119 0.00813932 0.0205 0.0005 
44 1 0.00493526 0.00966119 0.02075 0.00075 
401 1 0.00614718 0.0111604 0.0221815 0.00125 
1166 1 0.00585961 0.00784084 0.0217313 0.00075 
1234 1 0.00578447 0.00915106 0.0215123 0.0005 
323 1 0.00250624 0.00923813 0.0219998 0.002 
820 1 0.000506215 0.00934119 0.0205 0.0005 
1067 1 0.00762479 0.0123415 0.0205 0.0005 
713 1 0.00239588 0.0113668 0.0205 0.0005 
881 1 0.000500253 0.0103796 0.0205 0.0005 
943 1 0.00341664 0.0111534 0.0205 0.0005 
673 1 0.00474652 0.0111493 0.02075 0.00075 
174 1 0.0010203 0.0116952 0.0209999 0.001 
447 1 0.00581972 0.00874878 0.0205 0.0005 
737 1 0.00556749 0.0128039 0.0205 0.0005 
646 1 0.00134986 0.013794 0.0205 0.0005 
508 1 0.000500307 0.0132665 0.0205 0.0005 
872 1 0.00754289 0.0111195 0.0207499 0.00075 
439 1 0.00683048 0.0137622 0.0212499 0.00125 
891 1 0.00680783 0.00768085 0.0204999 0.0005 
427 1 0.00456013 0.00767282 0.0218836 0.0005 
1190 1 0.00494712 0.00871491 0.0218541 0.0005 
479 1 0.000499996 0.0129883 0.0215542 0.0005 
911 1 0.00442483 0.0108389 0.0221436 0.0005 
296 1 0.00347581 0.0134202 0.0222496 0.00225 
521 1 0.000713671 0.013632 0.022289 0.0005 
35 1 0.00777697 0.00901556 0.0216307 0.0015 
196 1 0.000612375 0.013952 0.0213122 0.0005 
636 1 0.0118314 0.00723868 0.0205 0.0005 
611 1 0.00840553 0.0139009 0.0205 0.0005 
275 1 0.0141743 0.00782593 0.0207499 0.00075 
46 1 0.00879745 0.0072146 0.0207497 0.00075 
556 1 0.0136685 0.00923799 0.0207498 0.00075 
287 1 0.0107221 0.0104952 0.0205 0.0005 
865 1 0.0134976 0.0122104 0.0204998 0.0005 
756 1 0.011563 0.00898033 0.0214997 0.0015 
318 1 0.0133606 0.00755223 0.0219798 0.00075 
686 1 0.00939555 0.00870044 0.0204996 0.0005 
10 1 0.0149704 0.0087567 0.0205 0.0005 
569 1 0.0124606 0.0104978 0.0205 0.0005 
252 1 0.00866009 0.0106181 0.0204999 0.0005 
188 1 0.0150221 0.0124432 0.021773 0.0015 
772 1 0.0126844 0.0116289 0.0204998 0.0005 
709 1 0.00965055 0.00989798 0.0207499 0.00075 
1061 1 0.011356 0.0112696 0.0205 0.0005 
110 1 0.0137541 0.0133496 0.0205 0.0005 
1118 1 0.00962155 0.00963812 0.0220978 0.0005 
59 1 0.0115768 0.0129345 0.0204999 0.0005 
974 1 0.0114207 0.0139222 0.0205 0.0005 
734 1 0.0126433 0.0128538 0.0211467 0.00075 
968 1 0.0120973 0.0111658 0.0215011 0.00075 
62 1 0.00966497 0.0123472 0.0219998 0.002 
1238 1 0.00986162 0.00802248 0.0210672 0.0005 
1028 1 0.0137615 0.0108848 0.0207497 0.00075 
1653 1 0.0145076 0.00841652 0.0217999 0.0005 
80 1 0.0151331 0.00998127 0.0213533 0.001 
810 1 0.00969549 0.00801112 0.0223058 0.00075 
43 1 0.0155858 0.0138791 0.0205 0.0005 
1080 1 0.0133057 0.0105461 0.0221377 0.00075 
1922 1 0.0157862 0.0084275 0.0209755 0.0005 
714 1 0.0158986 0.0111689 0.0205021 0.0005 
1225 1 0.0114919 0.0107129 0.0224967 0.0005 
192 1 0.0159249 0.00720588 0.02075 0.00075 
190 1 0.0174232 0.00713401 0.0207498 0.00075 
1056 1 0.0165204 0.010516 0.0223713 0.0005 
1846 1 0.0161201 0.00924146 0.0204999 0.0005 
342 1 0.016981 0.0120207 0.02075 0.00075 
319 1 0.0212389 0.00735334 0.0204998 0.0005 
293 1 0.0187929 0.0105653 0.0217497 0.00175 
735 1 0.0208398 0.00968244 0.0214268 0.0005 
308 1 0.0202231 0.00833696 0.0209998 0.001 
49 1 0.0169426 0.00981168 0.0204999 0.0005 
146 1 0.0192855 0.00724946 0.0205 0.0005 
578 1 0.0229132 0.00887929 0.0209999 0.001 
139 1 0.0170268 0.0137521 0.021 0.001 
90 1 0.018509 0.00805809 0.0212155 0.00075 
71 1 0.021422 0.00910229 0.0205 0.0005 
659 1 0.0171908 0.00861561 0.0207638 0.00075 
967 1 0.0168322 0.0108053 0.0204999 0.0005 
130 1 0.0216222 0.0116487 0.0205 0.0005 
41 1 0.0217305 0.0102877 0.02075 0.00075 
231 1 0.0235001 0.0101658 0.0204999 0.0005 
279 1 0.0235 0.00765397 0.02192 0.0005 
693 1 0.0214308 0.00766929 0.0215876 0.0005 
725 1 0.0229185 0.0111861 0.0209276 0.00075 
697 1 0.0204675 0.0097299 0.0205 0.0005 
330 1 0.0225868 0.012638 0.02075 0.00075 
78 1 0.0224762 0.0138577 0.0204999 0.0005 
800 1 0.0207463 0.0111199 0.0205 0.0005 
538 1 0.0234995 0.0122957 0.0215335 0.0005 
1236 1 0.01765 0.0125036 0.0216915 0.0005 
812 1 0.0218947 0.0116668 0.0214619 0.0005 
944 1 0.0234895 0.0133267 0.0214977 0.0005 
794 1 0.0169353 0.0118707 0.0219909 0.0005 
592 1 0.0180731 0.0125748 0.0205 0.0005 
910 1 0.0215202 0.0088457 0.0220586 0.00075 
523 1 0.0186901 0.0133615 0.0205 0.0005 
956 1 0.0190606 0.0124177 0.0205 0.0005 
350 1 0.0205644 0.0132781 0.0215001 0.0015 
639 1 0.0224053 0.0140588 0.0214768 0.0005 
1899 1 0.0165966 0.0103088 0.0213352 0.0005 
1138 1 0.0231893 0.0102293 0.0220785 0.00075 
272 1 0.0234867 0.0134689 0.0205 0.0005 
770 1 0.0235 0.0114397 0.0220505 0.0005 
1517 1 0.0210317 0.0107838 0.021662 0.0005 
1498 1 0.0185413 0.012781 0.0220503 0.0005 
1193 1 0.0184472 0.0135738 0.0214482 0.0005 
782 1 0.000500059 0.014588 0.0220869 0.0005 
70 1 0.000500066 0.0145244 0.0205 0.0005 
888 1 0.00296971 0.0161504 0.0205 0.0005 
550 1 0.00233294 0.0172201 0.0205 0.0005 
1 1 0.00746924 0.0155917 0.0207499 0.00075 
529 1 0.00125173 0.0159308 0.0212489 0.00125 
269 1 0.00709883 0.0176059 0.0212498 0.00125 
19 1 0.00485187 0.0165086 0.0212492 0.00125 
1077 1 0.00639991 0.0161879 0.0204997 0.0005 
877 1 0.00786111 0.0196068 0.0205 0.0005 
1060 1 0.00766029 0.0151256 0.0221372 0.0005 
1004 1 0.00564131 0.0191822 0.02075 0.00075 
688 1 0.000501887 0.0190052 0.0205001 0.0005 
896 1 0.00686612 0.0192018 0.0205 0.0005 
1660 1 0.00514038 0.0180635 0.0205 0.0005 
972 1 0.00655633 0.0157168 0.0219334 0.00075 
223 1 0.00332539 0.0190466 0.0217498 0.00175 
700 1 0.00478926 0.0208101 0.02075 0.00075 
1416 1 0.00356806 0.020901 0.0204997 0.0005 
436 1 0.00778587 0.0160914 0.021851 0.0005 
678 1 0.00100488 0.0203305 0.0210028 0.001 
315 1 0.00312843 0.0163999 0.0222586 0.00075 
600 1 0.00672521 0.0208547 0.0212499 0.00125 
576 1 0.000758207 0.0178191 0.0208144 0.00075 
1094 1 0.00569217 0.0185083 0.0223483 0.00075 
1859 1 0.00787723 0.0191672 0.021398 0.0005 
1884 1 0.00051575 0.0189107 0.0216647 0.0005 
430 1 0.00214976 0.0171624 0.0221077 0.0005 
1578 1 0.00400377 0.0212 0.0216408 0.0005 
1293 1 0.00246189 0.0208263 0.0205 0.0005 
748 1 0.00808221 0.0142459 0.0223731 0.0005 
1682 1 0.00820645 0.0202929 0.0222159 0.0005 
1570 1 0.00828804 0.0186584 0.0205 0.0005 
1144 1 0.00846415 0.0206674 0.0213251 0.0005 
1196 1 0.00855044 0.0171432 0.0222468 0.0005 
695 1 0.00858134 0.0147921 0.0213605 0.00075 
54 1 0.00901227 0.0164491 0.0209998 0.001 
786 1 0.00954018 0.0150406 0.0221229 0.0005 
180 1 0.0103121 0.0189609 0.0219998 0.002 
221 1 0.0113394 0.0156526 0.0214999 0.0015 
118 1 0.0139827 0.0149347 0.0212499 0.00125 
717 1 0.0123194 0.0185732 0.0205 0.0005 
1232 1 0.00966747 0.0143494 0.0205 0.0005 
934 1 0.0136959 0.0192824 0.02075 0.00075 
1310 1 0.0128545 0.0177225 0.0205 0.0005 
1212 1 0.0147519 0.0183181 0.0205 0.0005 
624 1 0.0136617 0.017125 0.0205 0.0005 
1035 1 0.0117827 0.0175879 0.0205 0.0005 
1592 1 0.0125277 0.0196508 0.0205 0.0005 
1697 1 0.00869904 0.0201536 0.0205 0.0005 
2033 1 0.0130814 0.0204598 0.0217541 0.0005 
1264 1 0.0106443 0.0209926 0.0205 0.0005 
1164 1 0.011986 0.0207493 0.0207499 0.00075 
2117 1 0.0156633 0.0144523 0.0213237 0.0005 
982 1 0.0150479 0.0207686 0.0205 0.0005 
1448 1 0.0123246 0.017585 0.0213502 0.0005 
2386 1 0.0136817 0.0174326 0.0217113 0.00075 
2420 1 0.0140956 0.0203539 0.0217685 0.0005 
2431 1 0.0145491 0.0166542 0.0205 0.0005 
2511 1 0.0150858 0.0165264 0.0221585 0.0005 
2287 1 0.0146758 0.0181722 0.0221425 0.0005 
1343 1 0.00942559 0.0212488 0.0207507 0.00075 
838 1 0.0164785 0.0150931 0.0224565 0.001 
189 1 0.0160803 0.0148364 0.0205 0.0005 
1338 1 0.0162324 0.0184009 0.0205 0.0005 
345 1 0.0190155 0.0143069 0.0205 0.0005 
741 1 0.0180061 0.0144578 0.0218904 0.0005 
450 1 0.018087 0.0146907 0.0205 0.0005 
1311 1 0.0164942 0.0205469 0.0205 0.0005 
947 1 0.0181694 0.0182895 0.0205 0.0005 
260 1 0.0181434 0.0166403 0.0217844 0.001 
591 1 0.0221863 0.0150516 0.0207498 0.00075 
465 1 0.0192078 0.0156536 0.0205 0.0005 
719 1 0.019091 0.0149827 0.0215496 0.00075 
628 1 0.0234999 0.0162076 0.0205 0.0005 
42 1 0.0223114 0.0165629 0.0207496 0.00075 
747 1 0.020923 0.0149721 0.0204998 0.0005 
813 1 0.0203039 0.0161341 0.0205005 0.0005 
787 1 0.0190403 0.0177968 0.0205 0.0005 
492 1 0.0197438 0.0170858 0.0205 0.0005 
238 1 0.0234999 0.0175935 0.0205 0.0005 
1216 1 0.0198821 0.0165192 0.0216128 0.00075 
1230 1 0.0171241 0.0154815 0.02075 0.00075 
566 1 0.0209601 0.0172358 0.02075 0.00075 
1333 1 0.0212776 0.0159068 0.0204999 0.0005 
1091 1 0.0201171 0.0181241 0.0204997 0.0005 
1398 1 0.0210527 0.0203586 0.0205 0.0005 
1189 1 0.0235 0.0143274 0.0210158 0.0005 
1427 1 0.019856 0.0148589 0.0205 0.0005 
898 1 0.0196906 0.0177156 0.0213063 0.0005 
1452 1 0.0207506 0.0191719 0.0207499 0.00075 
1488 1 0.0192603 0.0190016 0.02075 0.00075 
1124 1 0.0234995 0.0151844 0.0205 0.0005 
1020 1 0.0224686 0.0184279 0.0219977 0.0015 
1401 1 0.0214341 0.0158722 0.0220998 0.001 
1298 1 0.0203127 0.015414 0.0211956 0.0005 
1170 1 0.0232161 0.0157536 0.0216303 0.00075 
1831 1 0.0181964 0.0194513 0.0212286 0.0005 
1796 1 0.0200473 0.0185229 0.0225045 0.0005 
957 1 0.0234856 0.0197907 0.0205 0.0005 
1320 1 0.0198663 0.0206983 0.02075 0.00075 
1598 1 0.0205278 0.0205039 0.0220267 0.0005 
1437 1 0.023356 0.0203132 0.0219338 0.0005 
1184 1 0.0235 0.0169002 0.0212214 0.0005 
1692 1 0.0205298 0.0182003 0.0215595 0.0005 
1828 1 0.0189061 0.0180975 0.0217945 0.0005 
1202 1 0.0213869 0.020079 0.0216757 0.0005 
1460 1 0.0213888 0.0210069 0.022122 0.0005 
1219 1 0.0223846 0.0209722 0.0209999 0.001 
1984 1 0.0196883 0.0195796 0.0217725 0.0005 
1738 1 0.0179852 0.0201228 0.0205019 0.0005 
1648 1 0.0176622 0.0211677 0.0219561 0.00125 
2460 1 0.0161565 0.019609 0.0211989 0.0005 
2467 1 0.0173772 0.0192 0.0206125 0.0005 
1963 1 0.0194872 0.0206244 0.021959 0.0005 
1434 1 0.0232502 0.0144236 0.0223223 0.00075 
482 1 0.00050086 0.0217039 0.0205 0.0005 
12 1 0.00177126 0.0219769 0.0207495 0.00075 
952 1 0.00576271 0.0243209 0.0205 0.0005 
1081 1 0.00746091 0.0247266 0.0205 0.0005 
904 1 0.00672402 0.0239244 0.0205 0.0005 
1439 1 0.00552879 0.0231184 0.02075 0.00075 
831 1 0.00409086 0.0243421 0.0209999 0.001 
534 1 0.000766881 0.0230999 0.02075 0.00075 
1423 1 0.00246813 0.0247918 0.0205 0.0005 
1406 1 0.00147676 0.0245696 0.0205 0.0005 
483 1 0.000499999 0.0249523 0.0205 0.0005 
1394 1 0.00770999 0.0229095 0.0209999 0.001 
1483 1 0.0054888 0.0218401 0.0205 0.0005 
1512 1 0.00268173 0.0231032 0.0204998 0.0005 
752 1 0.00523613 0.025172 0.0205 0.0005 
1805 1 0.00340003 0.0221127 0.0207545 0.00075 
1576 1 0.000501411 0.0242381 0.0211999 0.0005 
1373 1 0.00652283 0.0257604 0.02075 0.00075 
1860 1 0.0046073 0.0223119 0.0204999 0.0005 
946 1 0.00633491 0.0243376 0.0221555 0.00125 
1625 1 0.000504079 0.0216745 0.0214995 0.0005 
1455 1 0.00211529 0.0238456 0.0216733 0.001 
1942 1 0.00497445 0.0220065 0.021655 0.00075 
338 1 0.001807 0.0265771 0.0217495 0.00175 
991 1 0.00477599 0.0266989 0.0212499 0.00125 
1662 1 0.0037685 0.0229179 0.0219651 0.00075 
1926 1 0.000527072 0.0228998 0.0219603 0.0005 
1520 1 0.00663664 0.0268061 0.0214716 0.0005 
1143 1 0.00348726 0.0281447 0.02075 0.00075 
2021 1 0.00740179 0.0267166 0.0205 0.0005 
1103 1 0.00501682 0.0282633 0.0205002 0.0005 
980 1 0.00634805 0.0271447 0.0205 0.0005 
1825 1 0.000600815 0.0238853 0.0221372 0.0005 
2481 1 0.00674056 0.0277035 0.0221674 0.0005 
1650 1 0.00596576 0.0222171 0.0223892 0.0005 
138 1 0.00785776 0.0282536 0.0205 0.0005 
1698 1 0.00839077 0.0247825 0.0213361 0.00075 
1342 1 0.00830102 0.0237467 0.0224213 0.00075 
978 1 0.00885355 0.0255901 0.0205 0.0005 
1208 1 0.00875668 0.0238946 0.0205 0.0005 
1757 1 0.0154267 0.0224998 0.0222463 0.0005 
1577 1 0.0146456 0.0221153 0.0205 0.0005 
1350 1 0.0128807 0.0232212 0.0205 0.0005 
919 1 0.00929538 0.0272134 0.022027 0.00175 
780 1 0.0130407 0.025246 0.0205 0.0005 
353 1 0.0151064 0.0240661 0.0205 0.0005 
1294 1 0.010789 0.0229405 0.0205 0.0005 
1180 1 0.0109641 0.0219405 0.0205 0.0005 
1462 1 0.0107549 0.0249468 0.0209596 0.0005 
1467 1 0.0120102 0.0237155 0.0205 0.0005 
1552 1 0.011809 0.0225156 0.0212196 0.00075 
1602 1 0.0111837 0.0261451 0.0205 0.0005 
1621 1 0.0124147 0.0244308 0.0214458 0.00075 
861 1 0.014323 0.0250051 0.0207593 0.00075 
1643 1 0.0110598 0.0240319 0.0205 0.0005 
1539 1 0.0133163 0.024284 0.0205 0.0005 
1330 1 0.0140718 0.024236 0.0217123 0.0005 
1192 1 0.0146505 0.0262384 0.0205041 0.0005 
1614 1 0.00956948 0.022764 0.02075 0.00075 
1693 1 0.015325 0.022849 0.0205 0.0005 
1618 1 0.00976656 0.0240237 0.020549 0.0005 
1221 1 0.0141134 0.0233666 0.0207974 0.00075 
1915 1 0.0136699 0.0260389 0.0205 0.0005 
1869 1 0.0100057 0.0255155 0.0205 0.0005 
1601 1 0.0117525 0.0213121 0.0221637 0.00075 
1655 1 0.00892336 0.0219497 0.0222774 0.001 
1870 1 0.0142955 0.0279694 0.02075 0.00075 
2193 1 0.0109854 0.0271801 0.0205129 0.0005 
2263 1 0.0138556 0.0259837 0.0215248 0.0005 
2270 1 0.0125559 0.0271367 0.0212871 0.00125 
1753 1 0.0153175 0.024155 0.0216918 0.0005 
862 1 0.0151591 0.0271 0.0205 0.0005 
1775 1 0.015249 0.0231884 0.0214375 0.0005 
1935 1 0.0110347 0.0282614 0.0205024 0.0005 
2004 1 0.014731 0.0264697 0.0214821 0.0005 
1987 1 0.0153802 0.0279122 0.0221717 0.0005 
1958 1 0.0147561 0.027131 0.0222362 0.0005 
2393 1 0.0113047 0.0282695 0.0222477 0.0005 
2243 1 0.0158975 0.026941 0.0214959 0.00075 
1017 1 0.0158589 0.0217404 0.02075 0.00075 
2348 1 0.0147217 0.0240118 0.0224884 0.0005 
1955 1 0.0157552 0.0257488 0.0224528 0.0005 
1105 1 0.0210241 0.0213581 0.0205 0.0005 
1563 1 0.0160843 0.0238553 0.0205 0.0005 
144 1 0.0160461 0.0252693 0.0209999 0.001 
152 1 0.0210638 0.0236297 0.0205 0.0005 
1292 1 0.0178195 0.0242958 0.02075 0.00075 
512 1 0.0197119 0.0267122 0.0205 0.0005 
1288 1 0.0169707 0.0223541 0.0205 0.0005 
1048 1 0.0186939 0.0223827 0.0207494 0.00075 
1415 1 0.0217647 0.0225778 0.0205 0.0005 
1087 1 0.0235 0.0256026 0.0205 0.0005 
1176 1 0.0186424 0.0257012 0.02075 0.00075 
1269 1 0.0232497 0.0226368 0.02075 0.00075 
1507 1 0.0234992 0.0243224 0.0219674 0.0005 
1574 1 0.0235 0.0266028 0.0205 0.0005 
1472 1 0.0232287 0.0242246 0.0207502 0.00075 
1590 1 0.0220228 0.0244384 0.0204999 0.0005 
1634 1 0.0192302 0.0237832 0.02075 0.00075 
908 1 0.0222995 0.0234247 0.0205 0.0005 
1646 1 0.0176803 0.0230781 0.0205 0.0005 
1927 1 0.0169445 0.026647 0.0205 0.0005 
1897 1 0.0184642 0.0232709 0.021936 0.00075 
1370 1 0.0232456 0.0278793 0.02075 0.00075 
1243 1 0.0206079 0.0251439 0.02125 0.00125 
1978 1 0.0174016 0.0257359 0.0205 0.0005 
1881 1 0.0172321 0.0247484 0.0217562 0.0005 
1514 1 0.0204521 0.0225022 0.0216942 0.00125 
1925 1 0.0219486 0.0238899 0.0213332 0.0005 
1768 1 0.0164367 0.0275655 0.0205 0.0005 
1794 1 0.0167302 0.0232345 0.0217031 0.001 
1527 1 0.0185275 0.0248327 0.0219684 0.00075 
1876 1 0.0164085 0.024874 0.0224008 0.0005 
1106 1 0.0184277 0.0276363 0.02125 0.00125 
1323 1 0.0199566 0.0280353 0.0204993 0.0005 
1090 1 0.0226492 0.0263704 0.0220114 0.00125 
1837 1 0.0168115 0.0276787 0.0219238 0.0005 
1015 1 0.0215792 0.027465 0.0205026 0.0005 
1974 1 0.0235 0.0282618 0.0219125 0.0005 
1267 1 0.0206247 0.0273564 0.0216573 0.001 
2065 1 0.019529 0.0240307 0.0221051 0.0005 
1758 1 0.0172275 0.0261318 0.0224151 0.001 
162 1 0.000499996 0.0328703 0.0205 0.0005 
259 1 0.00219048 0.0332589 0.0205 0.0005 
522 1 0.00094444 0.0340141 0.02075 0.00075 
348 1 0.00192592 0.0290087 0.0205 0.0005 
337 1 0.00314335 0.0324801 0.02075 0.00075 
897 1 0.000500028 0.0353896 0.0205 0.0005 
638 1 0.00335755 0.0339659 0.02075 0.00075 
506 1 0.000499996 0.0346236 0.0217466 0.0005 
1084 1 0.00110627 0.0310738 0.02075 0.00075 
1355 1 0.002167 0.0342667 0.0205 0.0005 
1451 1 0.00434805 0.029016 0.0205 0.0005 
412 1 0.00147599 0.0325482 0.0216172 0.001 
1285 1 0.000749991 0.0286189 0.02075 0.00075 
1607 1 0.00149968 0.0299134 0.0205 0.0005 
1529 1 0.00459429 0.0349533 0.0207536 0.00075 
1290 1 0.000500015 0.0298179 0.0205 0.0005 
1449 1 0.00288153 0.0296681 0.0205 0.0005 
1761 1 0.00540934 0.0340277 0.0205037 0.0005 
1760 1 0.00229943 0.033823 0.021401 0.0005 
1480 1 0.00664013 0.0283897 0.0207499 0.00075 
1611 1 0.0040333 0.0341932 0.0217772 0.0005 
2278 1 0.00294791 0.0308487 0.0205 0.0005 
2244 1 0.00168809 0.0288973 0.0215278 0.0005 
2306 1 0.00595811 0.0322504 0.02075 0.00075 
2343 1 0.00544467 0.0292114 0.0205 0.0005 
2387 1 0.00705053 0.0334481 0.020754 0.00075 
2407 1 0.00450157 0.0319026 0.0205469 0.0005 
2421 1 0.00553687 0.0331147 0.0217601 0.0005 
2423 1 0.00631546 0.0289643 0.0220969 0.00075 
2493 1 0.00750293 0.0345923 0.021543 0.0005 
672 1 0.00654234 0.03486 0.02075 0.00075 
2455 1 0.00782592 0.0318211 0.0216501 0.0005 
2537 1 0.00379615 0.0318893 0.0220088 0.0005 
505 1 0.0095782 0.0295342 0.0205 0.0005 
886 1 0.0102126 0.0318052 0.0205 0.0005 
1249 1 0.0141621 0.0324534 0.0207501 0.00075 
1154 1 0.0111978 0.0328474 0.0205 0.0005 
609 1 0.0123348 0.0328824 0.0205 0.0005 
1134 1 0.00893258 0.0330883 0.0207549 0.00075 
1340 1 0.0117275 0.0336986 0.0205 0.0005 
1678 1 0.0126808 0.0340185 0.0205 0.0005 
1703 1 0.0113742 0.031788 0.0205 0.0005 
1095 1 0.013541 0.0335088 0.0205 0.0005 
1872 1 0.00798249 0.0300995 0.0212478 0.00125 
1167 1 0.0149762 0.0350205 0.0204999 0.0005 
1815 1 0.0101494 0.0328017 0.0207387 0.0005 
1348 1 0.0132584 0.029655 0.0205 0.0005 
1594 1 0.0145179 0.0349025 0.0214763 0.0005 
2043 1 0.0105876 0.0292394 0.0205 0.0005 
1867 1 0.00916084 0.0342507 0.0217402 0.00075 
1793 1 0.0147535 0.0291042 0.0216174 0.00075 
2242 1 0.0124651 0.0308365 0.0210099 0.001 
2245 1 0.010953 0.0317306 0.0216754 0.00075 
2266 1 0.0132464 0.0286477 0.0205 0.0005 
1954 1 0.0113013 0.0300352 0.0205006 0.0005 
924 1 0.0122486 0.0349525 0.0205 0.0005 
1762 1 0.0100341 0.0326127 0.0218169 0.0005 
640 1 0.0105675 0.0340882 0.0207642 0.00075 
2323 1 0.0132526 0.0348997 0.0205 0.0005 
2362 1 0.0141648 0.0292105 0.0205067 0.0005 
2347 1 0.0123631 0.0346622 0.0215137 0.0005 
1361 1 0.0157483 0.0299117 0.0207499 0.00075 
2202 1 0.0144275 0.0308531 0.0214069 0.001 
2451 1 0.0117331 0.0290305 0.0212044 0.00075 
1083 1 0.0157084 0.0336192 0.0212499 0.00125 
835 1 0.00936102 0.0343012 0.0205013 0.0005 
2305 1 0.0158213 0.02992 0.0222842 0.0005 
2225 1 0.0096684 0.0294416 0.0222274 0.0005 
2408 1 0.0137027 0.034438 0.0223109 0.0005 
698 1 0.0161933 0.0316208 0.0208987 0.00075 
1786 1 0.0163056 0.0288205 0.0205 0.0005 
1409 1 0.017306 0.028896 0.0205 0.0005 
1113 1 0.0184403 0.0295756 0.02075 0.00075 
1044 1 0.0203804 0.0295576 0.02125 0.00125 
557 1 0.0204198 0.0338892 0.0212499 0.00125 
304 1 0.0224568 0.030776 0.0205 0.0005 
1142 1 0.0223913 0.0334649 0.0205 0.0005 
1335 1 0.0179143 0.0332462 0.0205 0.0005 
1273 1 0.0224808 0.0346889 0.0206448 0.0005 
1414 1 0.0235 0.0344508 0.0205 0.0005 
1016 1 0.02325 0.0324034 0.02075 0.00075 
1531 1 0.0188591 0.0335918 0.0205 0.0005 
1329 1 0.0234885 0.0291436 0.0205 0.0005 
1318 1 0.0195364 0.0324701 0.0205 0.0005 
1305 1 0.0190371 0.0309527 0.02075 0.00075 
1258 1 0.0234995 0.0301446 0.0205016 0.0005 
1695 1 0.0183051 0.034898 0.0209999 0.001 
1224 1 0.0175372 0.0309554 0.0207499 0.00075 
878 1 0.0231485 0.03373 0.0214587 0.00075 
1213 1 0.0204299 0.0315821 0.02075 0.00075 
1447 1 0.0173089 0.0297962 0.0217103 0.00075 
1603 1 0.0169713 0.0298383 0.020502 0.0005 
1403 1 0.0188389 0.0302601 0.0217716 0.0005 
1445 1 0.0235 0.0312043 0.0205 0.0005 
1362 1 0.0232319 0.0306263 0.0216283 0.00075 
1442 1 0.0187655 0.0292738 0.0219191 0.0005 
1626 1 0.018563 0.0321081 0.0205 0.0005 
889 1 0.0231869 0.0354005 0.0205 0.0005 
1534 1 0.0223882 0.0291611 0.0211429 0.00075 
1579 1 0.0216987 0.032383 0.0207534 0.00075 
1854 1 0.0162086 0.028759 0.0217446 0.00075 
1468 1 0.0190096 0.0321309 0.0223659 0.00125 
1227 1 0.017647 0.0334389 0.0217074 0.00075 
1812 1 0.0234882 0.0292715 0.0219077 0.0005 
2044 1 0.0174278 0.0315466 0.0218457 0.0005 
959 1 0.0196717 0.0352859 0.0205 0.0005 
1073 1 0.00500305 0.0368732 0.02075 0.00075 
249 1 0.002374 0.0362694 0.0220001 0.002 
960 1 0.00734909 0.0362069 0.0208866 0.00075 
535 1 0.000541623 0.0376912 0.0205 0.0005 
844 1 0.00387522 0.0381226 0.0205 0.0005 
366 1 0.00185651 0.0387467 0.0205 0.0005 
680 1 0.00308678 0.0391114 0.0207501 0.00075 
733 1 0.00204331 0.0418778 0.0205 0.0005 
1108 1 0.000818002 0.0401493 0.0207831 0.00075 
316 1 0.000547312 0.0385075 0.0210806 0.0005 
1276 1 0.00233318 0.0405975 0.021839 0.001 
949 1 0.00589746 0.0422301 0.02075 0.00075 
91 1 0.00688417 0.0410958 0.02075 0.00075 
1679 1 0.00756293 0.0415422 0.0220221 0.00075 
2422 1 0.000501044 0.0414259 0.0205 0.0005 
2458 1 0.00336826 0.0403781 0.0205 0.0005 
2485 1 0.00516569 0.0379678 0.0220987 0.0005 
1177 1 0.00394753 0.04205 0.0212508 0.00125 
471 1 0.00970222 0.0383479 0.0212499 0.00125 
2018 1 0.00931767 0.041735 0.0222183 0.0005 
1353 1 0.0103584 0.0403693 0.0205 0.0005 
1419 1 0.0128598 0.0372346 0.02075 0.00075 
1019 1 0.0138406 0.0384268 0.0205 0.0005 
1043 1 0.014606 0.0409163 0.0209999 0.001 
1107 1 0.0112689 0.0363495 0.02075 0.00075 
901 1 0.0116359 0.0397065 0.02075 0.00075 
1149 1 0.0140593 0.0358324 0.02075 0.00075 
1482 1 0.0126358 0.0416122 0.02075 0.00075 
1265 1 0.0144705 0.0394481 0.0205 0.0005 
1705 1 0.0148405 0.0384381 0.0205 0.0005 
1716 1 0.0155657 0.041966 0.0204999 0.0005 
912 1 0.00875402 0.0407119 0.0209999 0.001 
1346 1 0.0130934 0.0400712 0.02075 0.00075 
1743 1 0.0158916 0.0393842 0.0209999 0.001 
1661 1 0.0141263 0.0420746 0.0218236 0.0005 
1181 1 0.0144091 0.0372913 0.02075 0.00075 
1802 1 0.0154301 0.0379105 0.0211195 0.0005 
2083 1 0.0143951 0.0394798 0.0214966 0.0005 
2003 1 0.0129054 0.0386272 0.0213054 0.00075 
2194 1 0.0145739 0.0384966 0.021462 0.0005 
2275 1 0.0130663 0.0361971 0.0218133 0.00075 
2389 1 0.0114602 0.0375973 0.0209334 0.0005 
1902 1 0.0128513 0.0425302 0.0215706 0.0005 
2032 1 0.0155742 0.0403712 0.0224102 0.00075 
2452 1 0.0119829 0.0356351 0.0214864 0.0005 
2454 1 0.0150431 0.0378449 0.0220585 0.0005 
2284 1 0.0103378 0.0363316 0.0216255 0.0005 
2416 1 0.0110047 0.0376027 0.0221698 0.0005 
2499 1 0.0108034 0.0414076 0.0215172 0.0005 
2510 1 0.011461 0.0389701 0.0220503 0.00075 
2516 1 0.0110347 0.0419311 0.0205 0.0005 
2535 1 0.0126241 0.0406792 0.0219647 0.0005 
1862 1 0.017675 0.0359016 0.0219196 0.0005 
856 1 0.0162122 0.0378442 0.0205 0.0005 
1746 1 0.0160946 0.0419633 0.0219034 0.001 
1544 1 0.0160748 0.0361597 0.0212499 0.00125 
986 1 0.0179634 0.0365963 0.02075 0.00075 
1145 1 0.0174364 0.038008 0.0207499 0.00075 
1120 1 0.0202364 0.0363808 0.02075 0.00075 
909 1 0.0235 0.0363506 0.0205 0.0005 
268 1 0.0178761 0.0392213 0.0205 0.0005 
1278 1 0.0197626 0.0403285 0.0205 0.0005 
1033 1 0.0186526 0.0401378 0.0219313 0.001 
1307 1 0.0204917 0.0376258 0.0205 0.0005 
1018 1 0.0182753 0.0403803 0.0205 0.0005 
973 1 0.0198575 0.041324 0.0205 0.0005 
1148 1 0.0173411 0.0397282 0.0211758 0.0005 
990 1 0.0219806 0.0364853 0.0209998 0.001 
1003 1 0.0200145 0.0389462 0.02075 0.00075 
374 1 0.0232502 0.0392704 0.0207499 0.00075 
394 1 0.0172781 0.0404625 0.0205 0.0005 
326 1 0.0234987 0.040476 0.0205 0.0005 
650 1 0.0214973 0.0404648 0.0214999 0.0015 
848 1 0.0215196 0.0383137 0.02075 0.00075 
993 1 0.0235 0.0414777 0.0205 0.0005 
996 1 0.0187202 0.0386412 0.0205 0.0005 
892 1 0.0192698 0.0375366 0.02075 0.00075 
1261 1 0.0234949 0.0373506 0.0205 0.0005 
1117 1 0.020626 0.0420367 0.0205 0.0005 
1268 1 0.0227416 0.0380102 0.0205 0.0005 
1422 1 0.0178904 0.0417407 0.0210012 0.001 
1663 1 0.018167 0.0388136 0.0213661 0.0005 
1559 1 0.0189511 0.0396155 0.0205 0.0005 
1709 1 0.0165586 0.0422217 0.0205 0.0005 
1051 1 0.0192265 0.0384792 0.0219413 0.00075 
1506 1 0.0164075 0.0380524 0.0214584 0.0005 
1747 1 0.0164135 0.0386944 0.0222254 0.0005 
1882 1 0.0164975 0.0410938 0.0205005 0.0005 
1549 1 0.0234997 0.0358241 0.0213501 0.0005 
1023 1 0.0196941 0.0423993 0.0205001 0.0005 
876 1 0.0227405 0.0381386 0.0223247 0.00125 
981 1 0.0232266 0.041549 0.0214592 0.0005 
1011 1 0.0234978 0.0405607 0.0214964 0.0005 
1819 1 0.0235 0.0410349 0.0223772 0.0005 
811 1 0.0207377 0.0384177 0.022043 0.00075 
1101 1 0.0195463 0.0418287 0.0216026 0.00075 
1803 1 0.0173804 0.0378523 0.0222407 0.00075 
1877 1 0.0168067 0.0407114 0.0213721 0.0005 
1140 1 0.0234999 0.0396857 0.0219823 0.0005 
2267 1 0.0178209 0.0420767 0.0224628 0.0005 
1727 1 0.017153 0.0393527 0.0220834 0.0005 
1988 1 0.0220489 0.0423682 0.0219425 0.0005 
1165 1 0.020832 0.0369294 0.0222433 0.00075 
1657 1 0.0188269 0.0368029 0.0222759 0.001 
2108 1 0.0200637 0.0358112 0.0218723 0.0005 
1372 1 0.00624557 0.0429975 0.0221862 0.00075 
626 1 0.00756153 0.0429694 0.02075 0.00075 
451 1 0.000974267 0.0425908 0.0208291 0.00075 
615 1 0.00600681 0.0435369 0.0205 0.0005 
1537 1 0.00198642 0.0434293 0.0217575 0.00075 
1179 1 0.00685369 0.0451508 0.0214999 0.0015 
1186 1 0.00207687 0.0434138 0.0205 0.0005 
682 1 0.0056971 0.0464406 0.0205 0.0005 
1301 1 0.00442621 0.0476131 0.0207627 0.00075 
1497 1 0.000751298 0.0444651 0.0217667 0.00075 
519 1 0.000499998 0.0436995 0.0205 0.0005 
247 1 0.00180589 0.0448271 0.02075 0.00075 
309 1 0.00304102 0.0463821 0.0205013 0.0005 
554 1 0.00053126 0.0449851 0.0205 0.0005 
1215 1 0.0019706 0.0460457 0.0205001 0.0005 