ITEM: TIMESTEP
480000
ITEM: NUMBER OF ATOMS
3458
ITEM: BOX BOUNDS mm mm mm
-2.4e-06 0.0240024
-7.8e-06 0.0780078
-3e-06 0.030003
ITEM: ATOMS id type x y z radius 
291 1 0.0032343 0.00241163 0.0215038 0.0015 
368 1 0.0005 0.00201338 0.0205 0.0005 
784 1 0.00544537 0.00436168 0.0207494 0.00075 
32 1 0.00456142 0.000500652 0.0205016 0.0005 
241 1 0.00457693 0.00349973 0.0204993 0.0005 
815 1 0.00260704 0.00050042 0.0205 0.0005 
448 1 0.00367457 0.00411441 0.0205 0.0005 
300 1 0.000499273 0.000499449 0.0204996 0.0005 
442 1 0.000999815 0.00341276 0.0209998 0.001 
816 1 0.00593775 0.00587718 0.0205 0.0005 
710 1 0.00358429 0.000717475 0.0205 0.0005 
527 1 0.000501554 0.00573575 0.0205 0.0005 
100 1 0.00478206 0.00371407 0.0215879 0.0005 
153 1 0.0047071 0.00150447 0.0205 0.0005 
722 1 0.00157009 0.00582558 0.0205 0.0005 
864 1 0.00570122 0.00139667 0.0205 0.0005 
503 1 0.000499988 0.00473575 0.0205 0.0005 
561 1 0.00539038 0.00258181 0.0207518 0.00075 
501 1 0.0055337 0.000500401 0.0212926 0.0005 
954 1 0.00614644 0.000500493 0.0205 0.0005 
587 1 0.000679423 0.000500663 0.0214833 0.0005 
370 1 0.00684547 0.00219155 0.02075 0.00075 
28 1 0.00155224 0.00112279 0.0207499 0.00075 
220 1 0.0071803 0.000771072 0.0211489 0.00075 
2736 1 0.00241502 0.00393745 0.0205003 0.0005 
998 1 0.000752891 0.00693939 0.02075 0.00075 
842 1 0.00637274 0.00708466 0.0223603 0.0005 
2924 1 0.00190827 0.00480662 0.0205 0.0005 
390 1 0.00222674 0.00415378 0.0214593 0.0005 
151 1 0.00187052 0.000749862 0.0221673 0.00075 
486 1 0.00373447 0.006315 0.0222508 0.00225 
2921 1 0.000502211 0.0014747 0.0213425 0.0005 
1816 1 0.000499984 0.0061609 0.0216946 0.0005 
2929 1 0.00109655 0.00507264 0.0215454 0.00075 
463 1 0.00586224 0.00349225 0.0216089 0.0005 
1429 1 0.00102697 0.00679622 0.0222591 0.0005 
175 1 0.0046838 0.00102171 0.0213755 0.0005 
399 1 0.00177887 0.00371313 0.0222459 0.0005 
3005 1 0.00385242 0.000504199 0.0216384 0.0005 
324 1 0.00779234 0.00505822 0.0219997 0.002 
2872 1 0.00051911 0.000500054 0.0224707 0.0005 
307 1 0.00774332 0.00304684 0.0205 0.0005 
1195 1 0.00803305 0.00189191 0.0205 0.0005 
121 1 0.00874336 0.00686483 0.0205 0.0005 
228 1 0.00946781 0.00617544 0.0205 0.0005 
490 1 0.00983858 0.00506779 0.0205 0.0005 
199 1 0.0115572 0.00392346 0.0205 0.0005 
395 1 0.00988321 0.00315814 0.0205 0.0005 
474 1 0.0131659 0.00207689 0.0207488 0.00075 
282 1 0.00990179 0.00146505 0.0205 0.0005 
590 1 0.00950269 0.000500143 0.0205 0.0005 
176 1 0.0127155 0.00050051 0.0205 0.0005 
289 1 0.0106405 0.000499997 0.0205 0.0005 
362 1 0.00821362 0.000499994 0.0205 0.0005 
783 1 0.0107358 0.00450438 0.0205 0.0005 
51 1 0.0126711 0.00364853 0.0205 0.0005 
233 1 0.00883383 0.00270656 0.0210074 0.00075 
217 1 0.0104696 0.00605437 0.0205007 0.0005 
549 1 0.0101403 0.00558224 0.0213193 0.0005 
126 1 0.0121332 0.00556673 0.0214997 0.0015 
676 1 0.0100425 0.000809451 0.0215847 0.00075 
209 1 0.0134373 0.00708512 0.0205 0.0005 
730 1 0.00889667 0.00134488 0.0205 0.0005 
763 1 0.00956449 0.00410605 0.0205 0.0005 
66 1 0.0139195 0.00459453 0.0205026 0.0005 
61 1 0.013801 0.00603464 0.0205 0.0005 
108 1 0.0139321 0.00352517 0.021894 0.00125 
89 1 0.0088575 0.000500122 0.021265 0.0005 
155 1 0.011252 0.00236672 0.0212501 0.00125 
178 1 0.0139278 0.000757199 0.02075 0.00075 
364 1 0.010368 0.00412267 0.0216319 0.00075 
895 1 0.0112463 0.000500118 0.0213623 0.0005 
598 1 0.0117271 0.000658903 0.0205 0.0005 
1065 1 0.00862382 0.00140127 0.0224411 0.001 
3288 1 0.0143433 0.0065996 0.0211219 0.0005 
3344 1 0.0148561 0.00300736 0.0205003 0.0005 
3405 1 0.0147716 0.0057936 0.0205314 0.0005 
31 1 0.0159705 0.00154577 0.0214995 0.0015 
544 1 0.0157171 0.00458928 0.0210143 0.001 
3343 1 0.0149909 0.00529265 0.0224185 0.0005 
3364 1 0.0157833 0.00611578 0.0205087 0.0005 
161 1 0.0231026 0.000756885 0.0207499 0.00075 
159 1 0.0232798 0.0052782 0.0205 0.0005 
219 1 0.02155 0.00153433 0.0209999 0.001 
333 1 0.0231963 0.00669162 0.02075 0.00075 
142 1 0.0231635 0.00284319 0.02075 0.00075 
340 1 0.0216615 0.00638135 0.0207505 0.00075 
518 1 0.0196825 0.00161298 0.02075 0.00075 
113 1 0.0182525 0.00333992 0.0205 0.0005 
290 1 0.0180996 0.00157049 0.02075 0.00075 
853 1 0.0172508 0.00646583 0.0205 0.0005 
400 1 0.0196884 0.000501989 0.0218111 0.0005 
123 1 0.0228174 0.00101456 0.0224571 0.001 
3424 1 0.0228729 0.00276243 0.0219636 0.0005 
3425 1 0.0204901 0.00438171 0.0208163 0.0005 
3431 1 0.0185048 0.000759347 0.0216244 0.0005 
3449 1 0.0189379 0.00377029 0.0223998 0.00075 
64 1 0.00649599 0.00770472 0.021 0.001 
1778 1 0.0014427 0.00765486 0.0215081 0.0005 
380 1 0.00510096 0.00793662 0.0205 0.0005 
256 1 0.00148255 0.0094291 0.0204999 0.0005 
75 1 0.00215238 0.0083753 0.02075 0.00075 
887 1 0.00708548 0.00838397 0.0222009 0.0005 
1359 1 0.00337203 0.00868973 0.0205 0.0005 
588 1 0.00437242 0.00869553 0.0205 0.0005 
360 1 0.00661668 0.0137933 0.0205 0.0005 
154 1 0.00541107 0.0101276 0.02075 0.00075 
13 1 0.0005004 0.00984247 0.0205 0.0005 
879 1 0.00536516 0.00890106 0.0205 0.0005 
137 1 0.000966374 0.0107289 0.0205 0.0005 
44 1 0.00512431 0.0118588 0.0207498 0.00075 
1166 1 0.0057886 0.0086926 0.0222596 0.00075 
1234 1 0.00552271 0.00987982 0.0219702 0.0005 
323 1 0.00304047 0.0106275 0.0220545 0.002 
820 1 0.00148612 0.011832 0.0205 0.0005 
1067 1 0.00796033 0.0136407 0.0205 0.0005 
713 1 0.00337052 0.013434 0.0205 0.0005 
881 1 0.000500006 0.0126154 0.0205 0.0005 
943 1 0.00379625 0.012529 0.0205 0.0005 
673 1 0.00547455 0.0133169 0.0207495 0.00075 
174 1 0.00194445 0.0132133 0.0209999 0.001 
447 1 0.00615962 0.0112052 0.0204997 0.0005 
508 1 0.000543804 0.0136145 0.0205 0.0005 
891 1 0.0063348 0.00914559 0.0205 0.0005 
1190 1 0.00564082 0.010809 0.0223206 0.0005 
911 1 0.00476409 0.012688 0.0216178 0.0005 
35 1 0.00746981 0.01028 0.0216937 0.0015 
2621 1 0.00694102 0.0120625 0.0205 0.0005 
1032 1 0.00590205 0.0115528 0.0217047 0.0005 
1085 1 0.000757301 0.0121413 0.021726 0.00075 
742 1 0.000500705 0.0116153 0.0205 0.0005 
274 1 0.00752515 0.00867582 0.0205 0.0005 
427 1 0.00490666 0.00888851 0.0213886 0.0005 
1407 1 0.000750049 0.00868273 0.0211852 0.00075 
401 1 0.006985 0.0129677 0.0220123 0.00125 
1617 1 0.00171528 0.00850885 0.0219608 0.0005 
2240 1 0.00230367 0.0129839 0.0224504 0.0005 
1492 1 0.000499969 0.00752623 0.0218243 0.0005 
870 1 0.00790448 0.00740914 0.0205 0.0005 
311 1 0.0137325 0.00776228 0.0223509 0.001 
872 1 0.00833959 0.0121978 0.0207502 0.00075 
764 1 0.0101349 0.0074548 0.0214968 0.00125 
581 1 0.0119998 0.00783609 0.0221175 0.00075 
171 1 0.0128347 0.00826072 0.0208906 0.00075 
1070 1 0.00808822 0.00777815 0.0217229 0.00075 
636 1 0.0114661 0.0081011 0.0205174 0.0005 
275 1 0.0135554 0.00988968 0.0207713 0.00075 
46 1 0.00876095 0.00869938 0.0207492 0.00075 
556 1 0.0133675 0.0113795 0.02075 0.00075 
287 1 0.0105233 0.0114434 0.0205 0.0005 
756 1 0.0113801 0.00990899 0.0214999 0.0015 
686 1 0.00943591 0.00972125 0.0204998 0.0005 
10 1 0.0154295 0.0101626 0.0204999 0.0005 
569 1 0.0117725 0.0115957 0.0204997 0.0005 
252 1 0.00956324 0.0121536 0.0204996 0.0005 
188 1 0.014692 0.0139233 0.0216213 0.0015 
772 1 0.0117288 0.0130102 0.0204997 0.0005 
709 1 0.00940873 0.0109423 0.0207643 0.00075 
1061 1 0.0110058 0.0123196 0.0205001 0.0005 
1118 1 0.00937388 0.0116335 0.0218052 0.0005 
968 1 0.0119719 0.0120764 0.021636 0.00075 
62 1 0.0100773 0.014019 0.0220818 0.002 
1238 1 0.00998349 0.00888481 0.0204998 0.0005 
1028 1 0.0129377 0.0128165 0.02075 0.00075 
1653 1 0.0144598 0.0103052 0.0215826 0.0005 
80 1 0.0150924 0.011535 0.0210019 0.001 
810 1 0.00918821 0.00898987 0.0223615 0.00075 
192 1 0.0151414 0.00915485 0.0214817 0.00075 
1883 1 0.0141649 0.0119357 0.0221143 0.0005 
1056 1 0.0157809 0.0123185 0.0221114 0.0005 
938 1 0.00944888 0.0101551 0.0219623 0.0005 
1257 1 0.00851428 0.0120651 0.0221168 0.0005 
1225 1 0.0107733 0.0116294 0.0223228 0.0005 
714 1 0.0158452 0.0127322 0.0205 0.0005 
3416 1 0.0140785 0.00875379 0.0206452 0.0005 
59 1 0.012079 0.0139479 0.0205019 0.0005 
109 1 0.017959 0.00717178 0.0205 0.0005 
652 1 0.0174902 0.00797089 0.0220303 0.0005 
204 1 0.0234787 0.00806439 0.0205 0.0005 
57 1 0.0195561 0.00747315 0.0216653 0.0015 
143 1 0.022213 0.00747512 0.0205 0.0005 
577 1 0.0232491 0.00818056 0.0219277 0.00075 
452 1 0.0234326 0.00907548 0.0205 0.0005 
1922 1 0.0164364 0.00941864 0.0205 0.0005 
6 1 0.0219317 0.00886413 0.0210008 0.001 
190 1 0.0170317 0.00833522 0.02075 0.00075 
1846 1 0.016527 0.0104266 0.0205 0.0005 
342 1 0.0167362 0.0135734 0.0207496 0.00075 
319 1 0.0205209 0.00877996 0.0204995 0.0005 
293 1 0.01867 0.0123457 0.0217501 0.00175 
735 1 0.0204698 0.0110148 0.0215278 0.0005 
308 1 0.0196383 0.00988388 0.0210004 0.001 
49 1 0.0170433 0.0113042 0.0205 0.0005 
146 1 0.0183606 0.00890117 0.0205 0.0005 
578 1 0.0229935 0.0106495 0.0209997 0.001 
90 1 0.0179524 0.00910653 0.0216946 0.00075 
71 1 0.0214638 0.0102024 0.0205005 0.0005 
659 1 0.0177392 0.010252 0.02075 0.00075 
967 1 0.016799 0.0123189 0.0205 0.0005 
130 1 0.0202637 0.0133271 0.0205005 0.0005 
41 1 0.0213632 0.0114225 0.0207548 0.00075 
231 1 0.0235001 0.0119699 0.0205 0.0005 
279 1 0.0234998 0.00932046 0.0214781 0.0005 
693 1 0.0207731 0.00934992 0.0218233 0.0005 
725 1 0.0223972 0.0125096 0.0207499 0.00075 
697 1 0.020153 0.0112015 0.0205 0.0005 
330 1 0.0223263 0.0140079 0.0207499 0.00075 
800 1 0.0206118 0.0123889 0.0205 0.0005 
538 1 0.0234975 0.0133748 0.0204998 0.0005 
812 1 0.0213234 0.013273 0.0205 0.0005 
794 1 0.0166681 0.0140453 0.0219054 0.0005 
592 1 0.0178884 0.0140499 0.0205 0.0005 
910 1 0.0214937 0.0103804 0.0218595 0.00075 
1899 1 0.0164553 0.0125503 0.0214104 0.0005 
1138 1 0.0217392 0.0120466 0.0220661 0.00075 
770 1 0.0234379 0.0128534 0.0213507 0.0005 
1517 1 0.0209969 0.0131076 0.0214306 0.0005 
1287 1 0.0235002 0.0123378 0.0222048 0.0005 
737 1 0.00574979 0.0146027 0.0205 0.0005 
479 1 0.000507337 0.0143974 0.021491 0.0005 
646 1 0.00238531 0.0145581 0.0205028 0.0005 
521 1 0.00224493 0.0155765 0.0205009 0.0005 
439 1 0.007225 0.0153362 0.0212499 0.00125 
196 1 0.000604865 0.0146127 0.0205 0.0005 
782 1 0.000500009 0.0154031 0.0215141 0.0005 
70 1 0.000499997 0.0156072 0.0205 0.0005 
888 1 0.00509065 0.0176357 0.0205 0.0005 
550 1 0.00299308 0.016801 0.0205 0.0005 
529 1 0.00136903 0.0169336 0.0212498 0.00125 
19 1 0.0054098 0.0185453 0.0222944 0.00125 
1077 1 0.00734321 0.0179219 0.0205 0.0005 
1004 1 0.00688291 0.0198755 0.0207499 0.00075 
688 1 0.000510026 0.0204866 0.0205 0.0005 
972 1 0.00605711 0.0168809 0.02075 0.00075 
1094 1 0.00739448 0.0210034 0.0221522 0.00075 
430 1 0.00262984 0.0190794 0.0217457 0.0005 
1829 1 0.00750028 0.0173934 0.0213513 0.0005 
1696 1 0.00616003 0.0169867 0.0219916 0.0005 
436 1 0.0072827 0.0169162 0.0204999 0.0005 
3191 1 0.00226784 0.0198426 0.0205 0.0005 
896 1 0.00783162 0.0212394 0.0205 0.0005 
3402 1 0.000662874 0.015787 0.022423 0.0005 
1726 1 0.000499989 0.0208994 0.0217782 0.0005 
1884 1 0.00332534 0.0197809 0.0219233 0.0005 
3441 1 0.00419719 0.0199473 0.0208178 0.0005 
1060 1 0.00699559 0.0166614 0.0224411 0.0005 
865 1 0.0130807 0.0143058 0.0205 0.0005 
695 1 0.00816919 0.0170846 0.0223632 0.00075 
1859 1 0.00827205 0.020335 0.0205 0.0005 
269 1 0.00844112 0.0188625 0.0214886 0.00125 
734 1 0.0126596 0.0148859 0.0216836 0.00075 
974 1 0.0117294 0.0150274 0.0204999 0.0005 
1 1 0.00851079 0.0167857 0.02075 0.00075 
624 1 0.0137271 0.0155074 0.0223903 0.0005 
611 1 0.00880349 0.0154797 0.0205 0.0005 
110 1 0.0136927 0.0152434 0.0204998 0.0005 
2226 1 0.012694 0.0152906 0.0205012 0.0005 
877 1 0.0107948 0.0184827 0.0205 0.0005 
1570 1 0.00947796 0.0198668 0.0204998 0.0005 
54 1 0.00995545 0.0173688 0.0222225 0.001 
118 1 0.0144368 0.0166372 0.0212517 0.00125 
717 1 0.0117669 0.018248 0.0205 0.0005 
1232 1 0.0110157 0.0157278 0.0205 0.0005 
934 1 0.0123376 0.0193314 0.0207504 0.00075 
1310 1 0.0128603 0.0167395 0.0204998 0.0005 
1212 1 0.0148419 0.0190912 0.0205 0.0005 
1035 1 0.0110762 0.016949 0.0204999 0.0005 
1592 1 0.0111153 0.0194333 0.0205 0.0005 
1697 1 0.0104249 0.0201879 0.0205 0.0005 
2033 1 0.0129253 0.0197427 0.0218657 0.0005 
1264 1 0.0113442 0.0205809 0.0205 0.0005 
1164 1 0.0125342 0.0208174 0.0208004 0.00075 
982 1 0.0140826 0.0206846 0.0205 0.0005 
1448 1 0.0120195 0.0172805 0.0205 0.0005 
2386 1 0.013107 0.018044 0.0207499 0.00075 
2420 1 0.0133933 0.0199601 0.0205 0.0005 
2431 1 0.014358 0.0182155 0.0205 0.0005 
2287 1 0.0138062 0.0190494 0.0204998 0.0005 
2500 1 0.0143142 0.0198173 0.0209408 0.0005 
2378 1 0.0137754 0.019158 0.021515 0.0005 
2447 1 0.0129069 0.0185305 0.0221699 0.00075 
2086 1 0.0127951 0.0160336 0.0212076 0.0005 
1311 1 0.0151227 0.0203731 0.0205 0.0005 
2645 1 0.0149241 0.0183136 0.021396 0.0005 
1376 1 0.00991927 0.0189659 0.0205 0.0005 
2392 1 0.0110928 0.0177752 0.0211482 0.0005 
1757 1 0.0144408 0.020669 0.0214514 0.0005 
2594 1 0.0134593 0.0205437 0.0215951 0.0005 
2897 1 0.0093229 0.0177106 0.0205 0.0005 
1338 1 0.015358 0.0182237 0.0204998 0.0005 
2978 1 0.00996618 0.0164227 0.02075 0.00075 
2989 1 0.0116936 0.0185278 0.0214588 0.0005 
2598 1 0.0150438 0.0195462 0.0222421 0.001 
2289 1 0.0121776 0.0176534 0.0214892 0.0005 
3051 1 0.0120913 0.0160886 0.0204997 0.0005 
3061 1 0.00881085 0.0161609 0.0218139 0.0005 
3029 1 0.0118543 0.0201362 0.0215981 0.0005 
3080 1 0.0120389 0.0166807 0.0213037 0.0005 
2473 1 0.0140926 0.0182083 0.021941 0.0005 
43 1 0.0155366 0.015415 0.0205 0.0005 
3118 1 0.0110653 0.0164149 0.0213453 0.0005 
2294 1 0.0129828 0.0172998 0.021965 0.0005 
3001 1 0.0123437 0.0208905 0.0220824 0.0005 
3168 1 0.0126139 0.0163288 0.0221698 0.0005 
3174 1 0.0103191 0.0176026 0.0205 0.0005 
3188 1 0.0114079 0.0171697 0.0219058 0.0005 
3010 1 0.0112279 0.0209166 0.0216124 0.0005 
3215 1 0.0115177 0.0161841 0.0222111 0.0005 
1247 1 0.0105962 0.0194051 0.021984 0.001 
2511 1 0.0158599 0.0173237 0.0204999 0.0005 
2460 1 0.0157754 0.0194496 0.0205 0.0005 
1772 1 0.0116919 0.0184991 0.0224617 0.0005 
2681 1 0.0150869 0.0212296 0.021978 0.0005 
941 1 0.0117744 0.0157103 0.021369 0.0005 
3257 1 0.0120717 0.0194584 0.0223021 0.0005 
189 1 0.0159871 0.0163321 0.0204998 0.0005 
956 1 0.0189717 0.0141966 0.0205 0.0005 
272 1 0.0235001 0.0143746 0.0204998 0.0005 
2494 1 0.0186791 0.0145422 0.0222366 0.0005 
1236 1 0.0175207 0.0145108 0.0221443 0.0005 
1498 1 0.0181652 0.0145067 0.0213797 0.0005 
2117 1 0.016169 0.0164873 0.0214708 0.0005 
944 1 0.0235002 0.0145639 0.0214815 0.0005 
523 1 0.0183191 0.0149558 0.0204999 0.0005 
639 1 0.0225122 0.0150332 0.0214403 0.0005 
350 1 0.0204777 0.0150374 0.0215156 0.0015 
78 1 0.0228417 0.0151271 0.0205 0.0005 
139 1 0.0169455 0.0152925 0.0209997 0.001 
1193 1 0.018382 0.015576 0.0213272 0.0005 
345 1 0.0189134 0.0157599 0.0205 0.0005 
741 1 0.0179488 0.0165091 0.0214519 0.0005 
450 1 0.0180203 0.0162119 0.0204999 0.0005 
947 1 0.0173568 0.018207 0.0205001 0.0005 
591 1 0.0222963 0.0161928 0.0208593 0.00075 
465 1 0.0181365 0.017581 0.0204999 0.0005 
719 1 0.0190507 0.0168948 0.0210053 0.00075 
628 1 0.0235001 0.0172503 0.0204999 0.0005 
42 1 0.0224042 0.0177963 0.0207503 0.00075 
747 1 0.0211752 0.0166124 0.0204998 0.0005 
813 1 0.020052 0.0177263 0.0205 0.0005 
787 1 0.0182758 0.0186008 0.0204999 0.0005 
492 1 0.0191014 0.0180368 0.0204998 0.0005 
238 1 0.0235 0.0185001 0.0204999 0.0005 
1216 1 0.0195857 0.0183159 0.0216178 0.00075 
1230 1 0.0170469 0.0170219 0.0207513 0.00075 
566 1 0.0207308 0.0187457 0.0207499 0.00075 
1333 1 0.0211936 0.017612 0.0204999 0.0005 
1091 1 0.0195209 0.0189522 0.0205 0.0005 
1398 1 0.0211138 0.0209535 0.0204999 0.0005 
1189 1 0.0235 0.015517 0.0211794 0.0005 
1427 1 0.0201826 0.0167349 0.0205 0.0005 
898 1 0.018442 0.0187977 0.0214684 0.0005 
1452 1 0.0201932 0.0201459 0.0207498 0.00075 
1488 1 0.0183751 0.0198208 0.0207525 0.00075 
1124 1 0.0234966 0.0162504 0.0204999 0.0005 
1020 1 0.0225003 0.0199155 0.0214998 0.0015 
1401 1 0.021485 0.0172407 0.022132 0.001 
1298 1 0.0201969 0.0172425 0.0213631 0.0005 
1170 1 0.02325 0.016985 0.0217035 0.00075 
1831 1 0.0175156 0.0191816 0.0214765 0.0005 
1320 1 0.0190763 0.0211468 0.0207499 0.00075 
1598 1 0.0200273 0.0212351 0.0215565 0.0005 
1184 1 0.023499 0.018183 0.0214481 0.0005 
1692 1 0.0191855 0.0194996 0.0216483 0.0005 
1828 1 0.0176219 0.0181815 0.0214639 0.0005 
1202 1 0.0206224 0.0204952 0.0218706 0.0005 
1984 1 0.0193941 0.020472 0.0217528 0.0005 
1738 1 0.017305 0.0192255 0.0205 0.0005 
1648 1 0.0166751 0.0207441 0.0212598 0.00125 
2467 1 0.0163572 0.0181908 0.0204998 0.0005 
1434 1 0.0232452 0.0156541 0.0223954 0.00075 
1796 1 0.0199597 0.0199637 0.0224021 0.0005 
1865 1 0.0164932 0.0190171 0.0210457 0.0005 
1767 1 0.0207616 0.0185462 0.0219836 0.0005 
1929 1 0.020561 0.019498 0.0217532 0.0005 
2072 1 0.0235002 0.018444 0.0224134 0.0005 
2099 1 0.0196853 0.0167825 0.0220904 0.0005 
838 1 0.0162396 0.0179307 0.0220481 0.001 
2396 1 0.017146 0.0167364 0.022003 0.0005 
2547 1 0.0189019 0.0161648 0.0220087 0.0005 
1941 1 0.0178014 0.0157699 0.0224489 0.00075 
678 1 0.00171622 0.0213057 0.0209999 0.001 
700 1 0.00611682 0.0217679 0.02075 0.00075 
1293 1 0.00318502 0.0212803 0.0205 0.0005 
1416 1 0.00325368 0.022359 0.0205 0.0005 
1578 1 0.00560273 0.0228993 0.0205 0.0005 
482 1 0.000503731 0.0222489 0.0205 0.0005 
12 1 0.00214381 0.0229843 0.0207499 0.00075 
952 1 0.00577055 0.025502 0.0205 0.0005 
1439 1 0.00663855 0.0246379 0.0207499 0.00075 
831 1 0.00495205 0.0241599 0.0209999 0.001 
534 1 0.000750635 0.0235414 0.0207517 0.00075 
1423 1 0.00129986 0.0266278 0.0211886 0.0005 
1406 1 0.00051438 0.0257399 0.0205 0.0005 
483 1 0.000499995 0.0267416 0.0205 0.0005 
1483 1 0.0079373 0.0222351 0.0205 0.0005 
1512 1 0.00296488 0.0262934 0.0205 0.0005 
752 1 0.00603817 0.0270768 0.0205 0.0005 
1805 1 0.00359099 0.0252403 0.02075 0.00075 
1576 1 0.000500689 0.02474 0.0205 0.0005 
1373 1 0.00681968 0.0261339 0.02075 0.00075 
1860 1 0.0039226 0.0231146 0.0205 0.0005 
1625 1 0.000507095 0.0224497 0.0214796 0.0005 
1455 1 0.00185076 0.0252455 0.0209999 0.001 
1942 1 0.00691348 0.0231462 0.02075 0.00075 
1926 1 0.000522616 0.0251082 0.0217306 0.0005 
1520 1 0.00691758 0.0273678 0.0209244 0.0005 
1143 1 0.0029826 0.0275031 0.0208561 0.00075 
2021 1 0.00789635 0.0267465 0.0205 0.0005 
980 1 0.00514973 0.0275357 0.0205 0.0005 
1825 1 0.000499972 0.0260826 0.0214393 0.0005 
2481 1 0.00774537 0.0277349 0.0205 0.0005 
2583 1 0.00477238 0.0255635 0.0205 0.0005 
1893 1 0.000500003 0.0258961 0.0224217 0.0005 
2706 1 0.000502778 0.026845 0.022091 0.0005 
348 1 0.00203701 0.0266664 0.0205 0.0005 
775 1 0.00516507 0.0265538 0.0219496 0.00125 
1662 1 0.00324487 0.0238701 0.0212528 0.00075 
2168 1 0.00720042 0.0272731 0.0221383 0.00075 
2244 1 0.00130978 0.0273528 0.0205 0.0005 
2852 1 0.00414149 0.0263393 0.0205 0.0005 
2884 1 0.00354313 0.0264763 0.0212964 0.0005 
2920 1 0.00620431 0.0280071 0.0219607 0.0005 
1474 1 0.00593777 0.0231618 0.0215311 0.0005 
1449 1 0.00204573 0.0282496 0.0204999 0.0005 
2833 1 0.00422062 0.0279123 0.0213182 0.0005 
2427 1 0.00416938 0.0273389 0.0205 0.0005 
1991 1 0.00625515 0.0243449 0.0221702 0.00075 
2813 1 0.00147361 0.0276565 0.0214423 0.0005 
1209 1 0.000499969 0.0273957 0.0212563 0.0005 
2922 1 0.00250552 0.0274791 0.022278 0.00075 
3065 1 0.00502221 0.0282899 0.0217817 0.0005 
1861 1 0.00319795 0.0255743 0.0224441 0.001 
2449 1 0.00730138 0.0282594 0.0212264 0.0005 
3417 1 0.00406156 0.0218092 0.0218793 0.00075 
2207 1 0.00238976 0.0216227 0.0223021 0.0005 
1480 1 0.00610524 0.0283017 0.0207499 0.00075 
2143 1 0.00790314 0.0236248 0.0213449 0.0005 
1702 1 0.000499983 0.0283288 0.0219415 0.0005 
1835 1 0.0107799 0.0213013 0.0224206 0.0005 
1577 1 0.0135264 0.0215155 0.0204999 0.0005 
1775 1 0.0141121 0.0215856 0.0217504 0.0005 
2565 1 0.00799305 0.0242513 0.0205 0.0005 
600 1 0.00938481 0.0213836 0.0213674 0.00125 
1144 1 0.0106457 0.0225984 0.021393 0.0005 
1650 1 0.00822196 0.0231953 0.0205 0.0005 
946 1 0.00807922 0.0252333 0.0220157 0.00125 
904 1 0.00883513 0.0247955 0.0204997 0.0005 
1081 1 0.00874294 0.0261227 0.0205 0.0005 
1343 1 0.0114056 0.0218041 0.02075 0.00075 
1394 1 0.00953509 0.0236123 0.0210993 0.001 
1698 1 0.00982692 0.0255138 0.0207499 0.00075 
1342 1 0.0110205 0.024416 0.0216557 0.00075 
978 1 0.0107765 0.0263287 0.0204999 0.0005 
1208 1 0.0105584 0.0245307 0.0204999 0.0005 
1350 1 0.0135479 0.0238471 0.0205 0.0005 
919 1 0.00961601 0.0277959 0.0217498 0.00175 
780 1 0.0133524 0.025725 0.0205 0.0005 
353 1 0.0145425 0.0237436 0.0205 0.0005 
1294 1 0.0127022 0.0230238 0.0204999 0.0005 
1180 1 0.0126374 0.0220261 0.0204996 0.0005 
1462 1 0.0118115 0.0257012 0.0213619 0.0005 
1467 1 0.0124676 0.0239957 0.0205 0.0005 
1552 1 0.0129071 0.0219448 0.021717 0.00075 
1602 1 0.0117714 0.0262066 0.0205 0.0005 
1621 1 0.0129875 0.0252918 0.0216248 0.00075 
861 1 0.0142972 0.0249036 0.0208956 0.00075 
1643 1 0.0123254 0.0253639 0.0205 0.0005 
1539 1 0.0131214 0.0247521 0.0204999 0.0005 
1330 1 0.013602 0.0242008 0.0216607 0.0005 
1192 1 0.0151016 0.0257745 0.0204999 0.0005 
1614 1 0.0114575 0.0233031 0.0207499 0.00075 
1693 1 0.0150586 0.0228872 0.0205 0.0005 
1618 1 0.0116242 0.0245329 0.0205 0.0005 
1221 1 0.0138655 0.0226782 0.0208083 0.00075 
1915 1 0.0142132 0.0262338 0.0205 0.0005 
1869 1 0.0110882 0.0253786 0.0205 0.0005 
2193 1 0.0113776 0.0271278 0.0205 0.0005 
2263 1 0.0141228 0.0257994 0.02175 0.0005 
2270 1 0.012954 0.0272561 0.0212499 0.00125 
1753 1 0.0150148 0.0239805 0.0213572 0.0005 
862 1 0.014808 0.0270378 0.0205 0.0005 
2004 1 0.0146359 0.0265664 0.0213649 0.0005 
1958 1 0.0146451 0.0274899 0.0217495 0.0005 
2243 1 0.0159667 0.0266411 0.0207499 0.00075 
1017 1 0.0149017 0.0215952 0.02075 0.00075 
2348 1 0.0142242 0.0234226 0.0217461 0.0005 
1955 1 0.0150817 0.0259236 0.0220047 0.0005 
2603 1 0.0130271 0.0234453 0.0213463 0.0005 
2121 1 0.0108197 0.0259002 0.0214036 0.0005 
2261 1 0.0155655 0.0276741 0.0213278 0.0005 
2026 1 0.0114726 0.0265265 0.0218292 0.0005 
2662 1 0.0135329 0.0228932 0.0222379 0.0005 
2201 1 0.0122452 0.0242511 0.0214462 0.0005 
1931 1 0.0108364 0.025468 0.0223052 0.0005 
2419 1 0.0154528 0.0268424 0.0218713 0.0005 
2097 1 0.00981714 0.0245989 0.0221932 0.0005 
2411 1 0.00989133 0.0255766 0.0219966 0.0005 
1682 1 0.0117249 0.0222506 0.0220641 0.0005 
1288 1 0.0158852 0.0223248 0.0204999 0.0005 
1563 1 0.0155849 0.0238665 0.0205 0.0005 
1794 1 0.0155018 0.0226753 0.0219893 0.001 
1935 1 0.0114577 0.0281246 0.0204999 0.0005 
2463 1 0.0116875 0.027274 0.0224575 0.0005 
1870 1 0.0146172 0.0282477 0.0207499 0.00075 
1987 1 0.0151479 0.0283356 0.0219505 0.0005 
1963 1 0.0191908 0.0213942 0.0220818 0.0005 
144 1 0.0161007 0.0250154 0.0213828 0.001 
1881 1 0.0163026 0.023908 0.0223747 0.0005 
1105 1 0.0202576 0.0214701 0.0205 0.0005 
1460 1 0.0210058 0.0213716 0.021402 0.0005 
1437 1 0.0234991 0.0216889 0.021495 0.0005 
1768 1 0.0163957 0.0277878 0.0204999 0.0005 
957 1 0.0234964 0.0217881 0.0205 0.0005 
1837 1 0.0164015 0.0266361 0.0222289 0.0005 
1219 1 0.022137 0.0223376 0.0209999 0.001 
152 1 0.0202377 0.0246079 0.0205125 0.0005 
1292 1 0.016761 0.023524 0.0207496 0.00075 
512 1 0.0194186 0.0257809 0.0204999 0.0005 
1048 1 0.0181091 0.022293 0.0207502 0.00075 
1415 1 0.0214813 0.0235906 0.0205 0.0005 
1087 1 0.0235002 0.0262422 0.0204999 0.0005 
1176 1 0.0182987 0.0252858 0.02075 0.00075 
1269 1 0.0232503 0.023664 0.0207499 0.00075 
1507 1 0.0234983 0.0234148 0.0219514 0.0005 
1574 1 0.0234872 0.0272454 0.020501 0.0005 
1472 1 0.0231009 0.0251437 0.0209426 0.00075 
1590 1 0.0219397 0.0252777 0.0205 0.0005 
1634 1 0.0182376 0.0237873 0.0207499 0.00075 
908 1 0.022211 0.0243147 0.0205 0.0005 
1646 1 0.0168848 0.0223059 0.0204997 0.0005 
1927 1 0.017134 0.025669 0.0205 0.0005 
1897 1 0.0172501 0.0226161 0.0219369 0.00075 
1370 1 0.022377 0.0267188 0.0207704 0.00075 
1978 1 0.0172554 0.0246446 0.0205 0.0005 
1514 1 0.0200109 0.0230225 0.0212693 0.00125 
1925 1 0.0212368 0.0245604 0.0205 0.0005 
1527 1 0.0174828 0.0240967 0.0220085 0.00075 
1106 1 0.0178155 0.0271382 0.0213286 0.00125 
1323 1 0.0193616 0.0267794 0.0205 0.0005 
1267 1 0.0207836 0.026055 0.0210574 0.001 
1910 1 0.0194884 0.0265632 0.0216521 0.0005 
2162 1 0.0212305 0.0219682 0.0221762 0.0005 
3251 1 0.0192432 0.0244984 0.0205 0.0005 
1974 1 0.0234968 0.0274471 0.0214828 0.0005 
3363 1 0.0234984 0.0262345 0.0214998 0.0005 
3370 1 0.0197252 0.0250193 0.0212988 0.0005 
3378 1 0.0185373 0.0249826 0.0219397 0.0005 
1329 1 0.0234148 0.0282424 0.0205313 0.0005 
3335 1 0.0228256 0.0256281 0.0220615 0.0005 
1015 1 0.0215596 0.0276248 0.0204999 0.0005 
1044 1 0.0200827 0.0281879 0.0212505 0.00125 
2065 1 0.0183642 0.0233188 0.0224483 0.0005 
3347 1 0.019581 0.0245551 0.0224801 0.00075 
2864 1 0.00375035 0.0283707 0.0223822 0.00075 
1285 1 0.000844129 0.0284855 0.0207502 0.00075 
1103 1 0.00489801 0.0285085 0.0205 0.0005 
138 1 0.00798611 0.0287162 0.0205 0.0005 
162 1 0.000512556 0.0316198 0.0205 0.0005 
259 1 0.0036637 0.031451 0.0205 0.0005 
522 1 0.00161007 0.0334757 0.0207499 0.00075 
337 1 0.00293474 0.0299433 0.02075 0.00075 
638 1 0.00522341 0.0328402 0.0207499 0.00075 
506 1 0.000499968 0.0337303 0.0213681 0.0005 
1084 1 0.00148539 0.0303872 0.02075 0.00075 
1355 1 0.0030406 0.0331159 0.0204996 0.0005 
1451 1 0.00390467 0.0283925 0.0204999 0.0005 
412 1 0.0023257 0.0318999 0.0210088 0.001 
1607 1 0.00191648 0.0292411 0.0204998 0.0005 
1290 1 0.000499783 0.0296606 0.0204999 0.0005 
1761 1 0.00657385 0.0340384 0.0204999 0.0005 
1760 1 0.00403976 0.0331542 0.0204999 0.0005 
1611 1 0.00514987 0.0340626 0.0204999 0.0005 
2278 1 0.00295936 0.0287187 0.0205 0.0005 
2306 1 0.00488664 0.0313786 0.0207498 0.00075 
2343 1 0.00550492 0.0303214 0.0205 0.0005 
2387 1 0.00632817 0.0317945 0.0207499 0.00075 
2407 1 0.00401745 0.0305157 0.0205 0.0005 
2421 1 0.00646239 0.0330118 0.0204998 0.0005 
672 1 0.00761928 0.0346771 0.0208499 0.00075 
2537 1 0.00417417 0.0295279 0.0205 0.0005 
1872 1 0.00705118 0.0299913 0.02125 0.00125 
1792 1 0.00433879 0.0310455 0.0221057 0.00075 
2484 1 0.00549816 0.0307119 0.0216123 0.0005 
2573 1 0.00512925 0.0294391 0.0213018 0.00075 
1993 1 0.00204071 0.0287572 0.0216455 0.00075 
2455 1 0.00730123 0.0321845 0.0214489 0.0005 
2622 1 0.00621953 0.0314127 0.0219351 0.0005 
1291 1 0.000831622 0.0325575 0.0216454 0.00075 
2548 1 0.0031754 0.0308611 0.0216867 0.0005 
2570 1 0.00547198 0.0320149 0.0216552 0.0005 
897 1 0.000499914 0.0329587 0.0205 0.0005 
1168 1 0.00396314 0.0323382 0.0214436 0.00075 
1136 1 0.000750005 0.0310754 0.0218623 0.00075 
2381 1 0.00396785 0.028977 0.0213089 0.0005 
2530 1 0.00402033 0.0300149 0.0213655 0.0005 
2154 1 0.000750041 0.0295768 0.0217759 0.00075 
535 1 0.00155726 0.0347202 0.0205 0.0005 
2604 1 0.00644934 0.0335322 0.0221704 0.00125 
2371 1 0.00196556 0.0307963 0.0219589 0.0005 
2660 1 0.00515854 0.0301367 0.0223619 0.0005 
2337 1 0.00733034 0.0324985 0.0204999 0.0005 
2456 1 0.0072401 0.0314781 0.0221539 0.0005 
2628 1 0.00197219 0.0329858 0.0219814 0.0005 
2874 1 0.00760655 0.0348428 0.0220945 0.0005 
835 1 0.00741319 0.033495 0.0204999 0.0005 
2759 1 0.00244735 0.0299215 0.0219008 0.0005 
2152 1 0.000629447 0.0342094 0.0205 0.0005 
2631 1 0.00462564 0.0292621 0.0224321 0.0005 
249 1 0.0034681 0.0349851 0.0221032 0.002 
1529 1 0.00587872 0.0350391 0.0207783 0.00075 
2998 1 0.00738357 0.0285471 0.0221806 0.0005 
1281 1 0.000750293 0.0349119 0.02169 0.00075 
2937 1 0.00677956 0.0351672 0.0216353 0.0005 
316 1 0.000499963 0.0352009 0.0205 0.0005 
2493 1 0.00888623 0.0346863 0.0210883 0.0005 
2393 1 0.0117691 0.0284504 0.0217328 0.0005 
2301 1 0.0130518 0.0290102 0.0222057 0.00075 
505 1 0.00871033 0.0294472 0.0205 0.0005 
886 1 0.00857743 0.0304398 0.0205 0.0005 
1249 1 0.0130424 0.0321459 0.0207764 0.00075 
1154 1 0.0108302 0.0320657 0.0204999 0.0005 
609 1 0.011824 0.0321824 0.0205 0.0005 
1134 1 0.00814824 0.0315869 0.0207499 0.00075 
1340 1 0.0113107 0.0330405 0.0204999 0.0005 
1678 1 0.0123199 0.0331481 0.0205 0.0005 
1703 1 0.0105462 0.031051 0.0205 0.0005 
1095 1 0.0133681 0.0333205 0.0204999 0.0005 
1815 1 0.00955488 0.0306557 0.0205 0.0005 
1348 1 0.0131001 0.0299373 0.0205 0.0005 
2043 1 0.0110162 0.0290384 0.0205 0.0005 
1867 1 0.0082737 0.0329936 0.0212551 0.00075 
1793 1 0.0145964 0.0294552 0.0220176 0.00075 
2242 1 0.0119541 0.0307742 0.0209998 0.001 
2245 1 0.0102123 0.0304093 0.0215458 0.00075 
2266 1 0.0134627 0.0287529 0.0204998 0.0005 
1954 1 0.0107659 0.0300066 0.0205 0.0005 
1762 1 0.00904419 0.0309247 0.0213167 0.0005 
640 1 0.00961951 0.0318787 0.0207499 0.00075 
2323 1 0.0127075 0.0340714 0.0205 0.0005 
2362 1 0.0143839 0.02945 0.0204999 0.0005 
2347 1 0.0117143 0.0339554 0.0205 0.0005 
1361 1 0.0155599 0.0297908 0.0207504 0.00075 
2202 1 0.0141764 0.0308375 0.0210304 0.001 
2451 1 0.0122405 0.0290657 0.0207523 0.00075 
1083 1 0.0149063 0.0329543 0.0212499 0.00125 
2305 1 0.015566 0.0305481 0.0217445 0.0005 
2225 1 0.00969339 0.0296653 0.0205 0.0005 
2408 1 0.0134504 0.0339711 0.0212547 0.0005 
2304 1 0.0100247 0.0335486 0.021081 0.001 
2574 1 0.0136524 0.0294424 0.0211985 0.0005 
2404 1 0.0125717 0.0332331 0.0217498 0.00075 
2390 1 0.00886644 0.0318193 0.0217463 0.0005 
2252 1 0.0119338 0.0321871 0.0215025 0.0005 
2577 1 0.0109681 0.0324329 0.0214197 0.0005 
2505 1 0.0130673 0.0302042 0.021828 0.0005 
2247 1 0.0120451 0.0343166 0.0213726 0.0005 
1786 1 0.0157979 0.0285894 0.0205 0.0005 
2469 1 0.00866938 0.0339075 0.0204999 0.0005 
2379 1 0.0124176 0.0308257 0.0224255 0.0005 
2612 1 0.00833665 0.0341491 0.0217286 0.0005 
2443 1 0.00894158 0.0299304 0.0213443 0.0005 
2502 1 0.0151035 0.0314152 0.0220589 0.0005 
2887 1 0.0100837 0.032251 0.0218494 0.0005 
2217 1 0.0094079 0.0346158 0.0219384 0.0005 
2357 1 0.0112075 0.0333522 0.0223621 0.00075 
2239 1 0.0121643 0.0341929 0.0224391 0.0005 
2349 1 0.010842 0.0344698 0.0219385 0.0005 
1167 1 0.014385 0.034447 0.0205 0.0005 
1594 1 0.0141507 0.034593 0.0216046 0.0005 
924 1 0.0110079 0.0346631 0.0204998 0.0005 
2391 1 0.0130765 0.0346559 0.0218802 0.0005 