ITEM: TIMESTEP
690000
ITEM: NUMBER OF ATOMS
3075
ITEM: BOX BOUNDS mm mm mm
-2.4e-06 0.0240024
-7.8e-06 0.0780078
-3e-06 0.030003
ITEM: ATOMS id type x y z radius 
1 1 0.0033664 0.00218212 0.0215016 0.0015 
2 1 0.000499943 0.00149968 0.0204999 0.0005 
3 1 0.00541366 0.00421495 0.0207499 0.00075 
4 1 0.00477183 0.000503234 0.0205 0.0005 
5 1 0.00435188 0.00360494 0.0204998 0.0005 
6 1 0.00277193 0.000499971 0.0205 0.0005 
7 1 0.00459233 0.00588531 0.0205 0.0005 
8 1 0.000499771 0.000499806 0.0204999 0.0005 
9 1 0.00100053 0.00282218 0.021 0.001 
10 1 0.00703169 0.00554652 0.0205 0.0005 
11 1 0.0037719 0.000499704 0.0204998 0.0005 
12 1 0.000500192 0.00552642 0.0205 0.0005 
13 1 0.00630344 0.00325146 0.0214498 0.0005 
14 1 0.0049831 0.00156407 0.0204998 0.0005 
15 1 0.00118315 0.00625689 0.0205 0.0005 
16 1 0.00597959 0.00147816 0.0205 0.0005 
17 1 0.000499988 0.00414482 0.0205 0.0005 
18 1 0.00542245 0.00270711 0.02075 0.00075 
19 1 0.00610001 0.000499916 0.0216111 0.0005 
20 1 0.00577176 0.000499994 0.0205 0.0005 
21 1 0.000725065 0.000500005 0.0214742 0.0005 
22 1 0.00692959 0.00225139 0.02075 0.00075 
23 1 0.00163569 0.000956975 0.0207499 0.00075 
24 1 0.00697068 0.000749927 0.0207499 0.00075 
25 1 0.00315342 0.00391047 0.0205 0.0005 
27 1 0.00264234 0.00496244 0.0205 0.0005 
28 1 0.00224085 0.00350158 0.0205 0.0005 
29 1 0.00178246 0.000749968 0.0222282 0.00075 
31 1 0.000512703 0.00147687 0.0214996 0.0005 
32 1 0.000499988 0.00627594 0.02123 0.0005 
33 1 0.00173719 0.00439488 0.021215 0.00075 
34 1 0.00654981 0.0034437 0.0205 0.0005 
36 1 0.00530173 0.000976577 0.0212434 0.0005 
37 1 0.00296322 0.00457465 0.021379 0.0005 
38 1 0.00444641 0.000499869 0.0214458 0.0005 
40 1 0.000499996 0.000499995 0.0224485 0.0005 
41 1 0.0075676 0.0032969 0.0205 0.0005 
43 1 0.00718062 0.00421955 0.0205 0.0005 
1724 1 0.00581113 0.00566146 0.0207499 0.00075 
1770 1 0.00173059 0.00542007 0.0204999 0.0005 
1665 1 0.00116279 0.00553204 0.0213154 0.0005 
1715 1 0.0051992 0.000500099 0.0221167 0.0005 
1926 1 0.00402276 0.00478453 0.02075 0.00075 
1662 1 0.00669968 0.00463935 0.021858 0.001 
1735 1 0.00588798 0.00177566 0.0214502 0.0005 
1762 1 0.00689763 0.00133384 0.0221296 0.00075 
2008 1 0.00184663 0.00331732 0.0221352 0.0005 
2110 1 0.00515733 0.00149894 0.0220837 0.0005 
2030 1 0.000499997 0.00213798 0.0222497 0.0005 
2181 1 0.00516888 0.00638743 0.021539 0.0005 
1610 1 0.00717896 0.00307873 0.021901 0.0005 
1881 1 0.00775014 0.00228474 0.0216929 0.0005 
1977 1 0.00403145 0.000499993 0.0223556 0.0005 
1700 1 0.00765216 0.00639572 0.0219603 0.001 
139 1 0.0073136 0.0065059 0.0204999 0.0005 
2188 1 0.00540898 0.00296975 0.021972 0.0005 
102 1 0.00484227 0.00685421 0.0205 0.0005 
2207 1 0.000499985 0.00478476 0.0212683 0.0005 
1956 1 0.00618451 0.0060869 0.0218661 0.0005 
1682 1 0.00297112 0.00682043 0.0217499 0.00175 
1812 1 0.000749986 0.00399752 0.0222721 0.00075 
2060 1 0.000749987 0.00589669 0.0224374 0.00075 
2077 1 0.00633469 0.00244645 0.0220422 0.0005 
2330 1 0.00147996 0.00195872 0.0221289 0.0005 
42 1 0.00797819 0.00144604 0.0204999 0.0005 
2292 1 0.00860469 0.00106132 0.0218573 0.001 
44 1 0.00830012 0.00634344 0.0205 0.0005 
1633 1 0.00841548 0.00382706 0.0205 0.0005 
1806 1 0.0081069 0.00499528 0.0208201 0.00075 
99 1 0.0093889 0.005457 0.0214152 0.0005 
45 1 0.00907751 0.0057147 0.0205 0.0005 
46 1 0.00921127 0.00445624 0.0205 0.0005 
47 1 0.0116082 0.00423972 0.0205 0.0005 
48 1 0.0101218 0.0028283 0.0205 0.0005 
49 1 0.0138078 0.00234555 0.02075 0.00075 
50 1 0.0101037 0.0018266 0.0204999 0.0005 
51 1 0.0103023 0.000500005 0.0205 0.0005 
52 1 0.0125704 0.000499999 0.0205 0.0005 
53 1 0.0109366 0.00127318 0.0205 0.0005 
54 1 0.00830161 0.000499894 0.0204999 0.0005 
55 1 0.0109453 0.00518567 0.0204998 0.0005 
56 1 0.0131334 0.00380868 0.0205 0.0005 
57 1 0.00853025 0.00253911 0.0207499 0.00075 
58 1 0.0109397 0.00626731 0.0205 0.0005 
59 1 0.0100767 0.00568062 0.0204999 0.0005 
60 1 0.0126133 0.00565033 0.0214999 0.0015 
61 1 0.0103315 0.00114543 0.0215863 0.00075 
62 1 0.00916215 0.00149002 0.0205 0.0005 
63 1 0.00934478 0.00345782 0.0205 0.0005 
64 1 0.0143448 0.00558267 0.0205 0.0005 
66 1 0.0148627 0.00408877 0.0212498 0.00125 
67 1 0.00930226 0.000499945 0.0205 0.0005 
68 1 0.0116944 0.00266092 0.0212499 0.00125 
69 1 0.0137694 0.000749956 0.0207499 0.00075 
70 1 0.0103917 0.00409344 0.0207498 0.00075 
71 1 0.0115705 0.000499946 0.0205093 0.0005 
72 1 0.0127705 0.00148016 0.0205 0.0005 
75 1 0.0157539 0.00149967 0.0214999 0.0015 
65 1 0.0141863 0.00709197 0.0205 0.0005 
2063 1 0.0124686 0.000500676 0.0214948 0.0005 
2015 1 0.010363 0.00520068 0.0213294 0.0005 
143 1 0.0149145 0.00640445 0.0205 0.0005 
1828 1 0.0133493 0.00152217 0.0222629 0.001 
1644 1 0.0105546 0.00583703 0.0223883 0.00075 
1941 1 0.0115647 0.000923585 0.0214151 0.0005 
2441 1 0.0099798 0.00232651 0.021357 0.0005 
1608 1 0.0159228 0.00570914 0.02075 0.00075 
2355 1 0.00903711 0.00592927 0.0222997 0.0005 
2090 1 0.0110654 0.00440968 0.0217541 0.0005 
2263 1 0.0112492 0.00705683 0.0219003 0.0005 
2046 1 0.0148183 0.00605349 0.021705 0.00075 
2268 1 0.0117869 0.0040314 0.0223341 0.0005 
2039 1 0.0112747 0.00138414 0.0223711 0.0005 
2130 1 0.0133222 0.00327574 0.021438 0.0005 
1623 1 0.0159944 0.00524856 0.0219104 0.0005 
2318 1 0.0159304 0.00328654 0.0223807 0.0005 
2598 1 0.0105243 0.00206737 0.0224081 0.0005 
2848 1 0.0118059 0.000499925 0.0222882 0.0005 
74 1 0.0164073 0.00443102 0.0205 0.0005 
76 1 0.0220889 0.000749867 0.0207499 0.00075 
77 1 0.0235 0.00520885 0.0205 0.0005 
78 1 0.0203843 0.00105616 0.0209997 0.001 
79 1 0.0232502 0.00169901 0.0207499 0.00075 
81 1 0.0206765 0.00276333 0.02075 0.00075 
82 1 0.020536 0.004862 0.0204999 0.0005 
83 1 0.0187272 0.0016196 0.0207499 0.00075 
84 1 0.0215303 0.00188511 0.0204999 0.0005 
85 1 0.0172303 0.000500316 0.0205 0.0005 
86 1 0.0235 0.000500001 0.0205 0.0005 
87 1 0.0209575 0.00395531 0.0205 0.0005 
88 1 0.0182305 0.000499987 0.0205 0.0005 
89 1 0.0217017 0.00203657 0.0217288 0.00075 
90 1 0.0211221 0.00593724 0.0207499 0.00075 
91 1 0.0199033 0.00581564 0.0205 0.0005 
92 1 0.0223303 0.0041755 0.0205 0.0005 
93 1 0.0218965 0.00287902 0.0205 0.0005 
95 1 0.0235001 0.004209 0.0204999 0.0005 
97 1 0.017142 0.0058246 0.0205 0.0005 
182 1 0.0232496 0.00640739 0.0207507 0.00075 
1643 1 0.0211028 0.00447059 0.021349 0.0005 
1663 1 0.0215323 0.00477802 0.0204999 0.0005 
1901 1 0.0202727 0.00623009 0.021619 0.0005 
1650 1 0.0224081 0.005167 0.0216538 0.001 
2044 1 0.0169378 0.00279304 0.0205 0.0005 
1612 1 0.022947 0.00324652 0.0215084 0.001 
187 1 0.0220652 0.00671849 0.0205 0.0005 
2221 1 0.0225259 0.000499993 0.021894 0.0005 
1629 1 0.0185177 0.00420917 0.0222497 0.00225 
1979 1 0.0215705 0.0065664 0.0217324 0.0005 
2364 1 0.0190102 0.000499859 0.0212277 0.0005 
2071 1 0.0178683 0.000749903 0.0216699 0.00075 
2447 1 0.0215057 0.00356183 0.0212379 0.0005 
2462 1 0.0209506 0.00543756 0.0218827 0.0005 
2334 1 0.0191569 0.00127819 0.0222269 0.00075 
94 1 0.0184535 0.00645885 0.0205 0.0005 
96 1 0.0207308 0.00703284 0.02201 0.0005 
80 1 0.0198844 0.00704024 0.0207499 0.00075 
2613 1 0.0204819 0.00224829 0.0219048 0.0005 
2682 1 0.0234994 0.00620591 0.0219617 0.0005 
2222 1 0.0213758 0.000750024 0.0224278 0.00075 
2516 1 0.0225305 0.00138796 0.0224088 0.0005 
2332 1 0.0201449 0.000500046 0.0223721 0.0005 
35 1 0.000499997 0.0072129 0.0219598 0.0005 
26 1 0.000750336 0.00740259 0.02075 0.00075 
100 1 0.00618179 0.00735349 0.021 0.001 
101 1 0.00131496 0.00848938 0.0205 0.0005 
103 1 0.00184289 0.0101952 0.0205 0.0005 
104 1 0.00243142 0.00911783 0.02075 0.00075 
105 1 0.007133 0.0117941 0.0204997 0.0005 
106 1 0.00354215 0.00860201 0.0204999 0.0005 
107 1 0.00267411 0.0116689 0.0205 0.0005 
108 1 0.00455481 0.0105634 0.0207503 0.00075 
109 1 0.000499916 0.0109472 0.0205 0.0005 
110 1 0.00516612 0.00945639 0.0205 0.0005 
111 1 0.00179334 0.0111952 0.0205 0.0005 
112 1 0.00387664 0.0119013 0.0207499 0.00075 
113 1 0.00589209 0.0101107 0.0212792 0.00075 
114 1 0.0050833 0.0116951 0.0210027 0.0005 
116 1 0.00287983 0.0128771 0.0205 0.0005 
118 1 0.000500041 0.0130004 0.0205 0.0005 
119 1 0.00374845 0.013373 0.0205 0.0005 
122 1 0.00593785 0.0120271 0.0204999 0.0005 
124 1 0.00567286 0.011063 0.0204999 0.0005 
125 1 0.00493901 0.0125488 0.0205 0.0005 
126 1 0.00368592 0.0127972 0.0216003 0.0005 
128 1 0.0071788 0.0132099 0.0204999 0.0005 
129 1 0.00594559 0.013027 0.0205 0.0005 
130 1 0.00170417 0.0124167 0.0207498 0.00075 
131 1 0.000502686 0.0119972 0.0205 0.0005 
132 1 0.00586613 0.00874229 0.0204999 0.0005 
133 1 0.00416767 0.00940154 0.0204999 0.0005 
134 1 0.000749856 0.00957594 0.0207499 0.00075 
136 1 0.00169492 0.00973296 0.0215526 0.0005 
137 1 0.00274158 0.0125097 0.0214408 0.0005 
138 1 0.000499987 0.00848924 0.0213147 0.0005 
140 1 0.00050215 0.0136192 0.021425 0.0005 
141 1 0.0078248 0.0079016 0.02075 0.00075 
1822 1 0.00304124 0.0104912 0.0207496 0.00075 
154 1 0.00721741 0.0105724 0.0207499 0.00075 
1865 1 0.000643381 0.0114516 0.0213565 0.0005 
1780 1 0.00472698 0.00829385 0.020752 0.00075 
222 1 0.00644717 0.013892 0.0205 0.0005 
1934 1 0.00339003 0.0118663 0.0219014 0.0005 
120 1 0.00498191 0.0137827 0.0207499 0.00075 
1893 1 0.00368945 0.00921242 0.0216392 0.00075 
1655 1 0.00686282 0.00895043 0.0212249 0.00075 
1805 1 0.00225957 0.0113752 0.0216754 0.00075 
1890 1 0.0012238 0.010668 0.0211308 0.0005 
1970 1 0.00498955 0.0106566 0.0219525 0.0005 
2119 1 0.00156958 0.00856112 0.0214643 0.0005 
1739 1 0.000999908 0.0125255 0.022348 0.001 
2433 1 0.00244216 0.0132303 0.0220692 0.0005 
123 1 0.000500142 0.0140033 0.0205 0.0005 
2342 1 0.00248341 0.0123143 0.0224694 0.0005 
2047 1 0.00374454 0.0106633 0.022063 0.00075 
1888 1 0.0077092 0.00979083 0.0221344 0.00075 
2665 1 0.00259941 0.0100534 0.0218337 0.0005 
121 1 0.00190811 0.0141367 0.0209999 0.001 
163 1 0.008356 0.0117319 0.02075 0.00075 
183 1 0.0152576 0.00734374 0.0205 0.0005 
148 1 0.00839281 0.0133713 0.02075 0.00075 
142 1 0.0138584 0.00809406 0.0205 0.0005 
144 1 0.00978316 0.0103473 0.0205 0.0005 
145 1 0.0126126 0.00808513 0.0205 0.0005 
147 1 0.0132039 0.00727864 0.0205 0.0005 
149 1 0.00963076 0.00719735 0.0212499 0.00125 
150 1 0.0115459 0.00748347 0.0207499 0.00075 
151 1 0.0117676 0.00897212 0.0207499 0.00075 
152 1 0.0103707 0.00862284 0.0205 0.0005 
153 1 0.0110402 0.0102839 0.02075 0.00075 
155 1 0.0115251 0.0117033 0.02075 0.00075 
156 1 0.009505 0.0113078 0.0205 0.0005 
158 1 0.00869945 0.0105563 0.0204999 0.0005 
159 1 0.0132257 0.0088751 0.0204999 0.0005 
160 1 0.0103155 0.0118939 0.0204996 0.0005 
164 1 0.00961675 0.0133278 0.0205 0.0005 
165 1 0.00941414 0.0123485 0.0205 0.0005 
166 1 0.0108021 0.0130176 0.02075 0.00075 
167 1 0.00918727 0.00871492 0.0204999 0.0005 
168 1 0.0123017 0.0129866 0.0207499 0.00075 
169 1 0.012361 0.0106809 0.0205 0.0005 
170 1 0.0137853 0.0106719 0.0209998 0.001 
171 1 0.00819923 0.00943851 0.0207499 0.00075 
172 1 0.0116522 0.0108756 0.0219944 0.00075 
173 1 0.0127478 0.011633 0.0204999 0.0005 
174 1 0.0133883 0.0124039 0.0205 0.0005 
175 1 0.00924663 0.0107377 0.0213169 0.0005 
176 1 0.00891874 0.0125113 0.0215487 0.0005 
177 1 0.00825564 0.0106804 0.0214375 0.0005 
179 1 0.0127224 0.00973915 0.0204999 0.0005 
180 1 0.0127168 0.0119174 0.0217166 0.00075 
184 1 0.0148653 0.00966817 0.0212755 0.0005 
1640 1 0.0111666 0.00830298 0.0219502 0.00075 
1732 1 0.00983596 0.00940285 0.0216643 0.001 
181 1 0.0141307 0.00930049 0.0205 0.0005 
191 1 0.0151054 0.00855899 0.0207499 0.00075 
1614 1 0.010135 0.0117473 0.0219811 0.001 
192 1 0.0154865 0.0110897 0.0205 0.0005 
1815 1 0.0152562 0.0105884 0.0213339 0.0005 
325 1 0.0133474 0.013624 0.0204999 0.0005 
1676 1 0.0128584 0.0106035 0.022177 0.0005 
1592 1 0.0152715 0.0130782 0.0219999 0.002 
2095 1 0.012234 0.00998576 0.021337 0.0005 
1831 1 0.00854765 0.00853965 0.0215454 0.0005 
1916 1 0.0156157 0.00911465 0.0217466 0.0005 
1929 1 0.0147145 0.0105912 0.0221745 0.0005 
201 1 0.0159951 0.00976661 0.0207499 0.00075 
1775 1 0.011564 0.013557 0.0215824 0.0005 
2223 1 0.0127822 0.013268 0.021869 0.0005 
2037 1 0.0113983 0.00962527 0.0217512 0.0005 
1920 1 0.00970724 0.013949 0.0221599 0.00125 
1793 1 0.0135768 0.0112753 0.0223571 0.0005 
162 1 0.0102432 0.0141072 0.0205 0.0005 
260 1 0.0130511 0.0140742 0.0213421 0.0005 
252 1 0.0120104 0.0141762 0.0204999 0.0005 
1740 1 0.0162472 0.0108616 0.0212977 0.0005 
178 1 0.0170692 0.0122021 0.0204999 0.0005 
185 1 0.0235001 0.00760591 0.0204999 0.0005 
186 1 0.0169775 0.00754978 0.0214999 0.0015 
188 1 0.0226556 0.00716315 0.0219022 0.00075 
189 1 0.0235002 0.00960564 0.0204998 0.0005 
190 1 0.0213613 0.00794501 0.0209999 0.001 
193 1 0.0180443 0.012943 0.0207499 0.00075 
194 1 0.0189437 0.00782876 0.0205 0.0005 
196 1 0.0201684 0.00875374 0.0214167 0.0005 
197 1 0.0188172 0.00925468 0.021 0.001 
198 1 0.0164239 0.011438 0.0205 0.0005 
199 1 0.0174033 0.00922862 0.0204999 0.0005 
200 1 0.023 0.0108573 0.0211575 0.001 
202 1 0.0204336 0.00910361 0.0205 0.0005 
203 1 0.0173298 0.010451 0.0207501 0.00075 
204 1 0.0178394 0.0115646 0.0204999 0.0005 
205 1 0.0202423 0.0128534 0.0205 0.0005 
206 1 0.0213048 0.0110083 0.02075 0.00075 
207 1 0.0234955 0.0121206 0.0204999 0.0005 
208 1 0.0235 0.00860577 0.0204999 0.0005 
209 1 0.0198686 0.00827185 0.0205 0.0005 
210 1 0.0222057 0.0123623 0.0207499 0.00075 
211 1 0.0199983 0.0100323 0.0204999 0.0005 
212 1 0.0224784 0.0138372 0.0207499 0.00075 
213 1 0.0209928 0.0121926 0.0205 0.0005 
214 1 0.0234993 0.0131424 0.0205 0.0005 
215 1 0.0213898 0.0132756 0.0205 0.0005 
216 1 0.0218436 0.00960855 0.02075 0.00075 
217 1 0.0171269 0.0115688 0.0212716 0.0005 
218 1 0.0211385 0.0123617 0.0218038 0.00075 
219 1 0.0230929 0.0131475 0.0215922 0.0005 
221 1 0.0235001 0.0122396 0.0214927 0.0005 
324 1 0.0192617 0.0130773 0.0205 0.0005 
1626 1 0.0194191 0.0115034 0.0212499 0.00125 
1691 1 0.0230172 0.00910613 0.0215386 0.00075 
1684 1 0.0217106 0.0108615 0.021924 0.0005 
1915 1 0.0235001 0.00795786 0.0214358 0.0005 
220 1 0.0201903 0.0131127 0.0214643 0.0005 
2005 1 0.0206344 0.00994815 0.0215726 0.00075 
1851 1 0.0193122 0.00735805 0.0223728 0.001 
1835 1 0.0178441 0.012133 0.0216807 0.0005 
2211 1 0.0181823 0.0133396 0.0219273 0.0005 
1968 1 0.0192168 0.0135984 0.0213525 0.0005 
328 1 0.0190136 0.0140799 0.0204999 0.0005 
2149 1 0.0194604 0.00999448 0.0221352 0.0005 
326 1 0.0205448 0.0138102 0.0205 0.0005 
330 1 0.0171105 0.013865 0.0205 0.0005 
329 1 0.0176003 0.0139329 0.0213707 0.0005 
2289 1 0.0207733 0.0110067 0.022241 0.0005 
332 1 0.0235 0.0140479 0.0214387 0.0005 
2213 1 0.0225387 0.0121163 0.022282 0.00075 
1960 1 0.0194515 0.0130955 0.0224725 0.00075 
117 1 0.00374444 0.0144516 0.0205 0.0005 
223 1 0.0044594 0.0151508 0.0205 0.0005 
224 1 0.00297079 0.0150852 0.0205 0.0005 
225 1 0.00218151 0.0161146 0.0205 0.0005 
226 1 0.00602334 0.0154152 0.0212499 0.00125 
227 1 0.00140668 0.0154824 0.0205 0.0005 
228 1 0.000500001 0.015004 0.0205 0.0005 
229 1 0.000499954 0.016005 0.0204999 0.0005 
230 1 0.00448697 0.0171938 0.0205 0.0005 
231 1 0.00283078 0.0173682 0.0205 0.0005 
232 1 0.00124973 0.017397 0.0212499 0.00125 
233 1 0.00647789 0.0170089 0.0205 0.0005 
234 1 0.00531692 0.0181074 0.0207499 0.00075 
235 1 0.00050017 0.0188488 0.0205 0.0005 
236 1 0.00343441 0.0163026 0.0207499 0.00075 
237 1 0.00545441 0.0168904 0.0204999 0.0005 
238 1 0.00428489 0.0156228 0.0213641 0.0005 
239 1 0.00465542 0.0162081 0.0204999 0.0005 
240 1 0.00253129 0.0183227 0.0204999 0.0005 
241 1 0.000815476 0.0155047 0.0213062 0.0005 
242 1 0.00049997 0.0198778 0.0215988 0.0005 
243 1 0.003414 0.0187923 0.0204999 0.0005 
244 1 0.00435373 0.0191339 0.0205 0.0005 
245 1 0.00594054 0.0171691 0.021328 0.0005 
246 1 0.00327571 0.0197837 0.0205 0.0005 
247 1 0.00183657 0.0195545 0.0209998 0.001 
248 1 0.00468405 0.0189473 0.0214255 0.0005 
249 1 0.00713537 0.0200085 0.0205 0.0005 
250 1 0.0037199 0.0178397 0.0204999 0.0005 
256 1 0.00722658 0.01843 0.0212499 0.00125 
255 1 0.00742998 0.0164393 0.0222366 0.00075 
392 1 0.00565982 0.0195677 0.0207499 0.00075 
443 1 0.00438662 0.0203603 0.0207498 0.00075 
1846 1 0.00344555 0.019293 0.0216446 0.00075 
393 1 0.00301148 0.0207482 0.0205 0.0005 
1615 1 0.00488745 0.0167455 0.0213106 0.0005 
259 1 0.00760583 0.0165312 0.0207499 0.00075 
395 1 0.000500014 0.0200169 0.0205 0.0005 
1616 1 0.00382907 0.01424 0.0219843 0.001 
1802 1 0.00541696 0.0205947 0.0214199 0.0005 
411 1 0.000499979 0.0210387 0.0205 0.0005 
390 1 0.00663486 0.0203266 0.0216003 0.00075 
444 1 0.00347965 0.0205412 0.0215905 0.0005 
1636 1 0.00236956 0.0208069 0.0220995 0.00075 
432 1 0.00611999 0.0207364 0.0205 0.0005 
261 1 0.00760074 0.0153064 0.0205 0.0005 
1804 1 0.00316885 0.0178191 0.0216215 0.00075 
2055 1 0.00438088 0.0176023 0.0214065 0.0005 
1908 1 0.00395523 0.0166509 0.0221378 0.00075 
391 1 0.00713446 0.0210086 0.0205 0.0005 
1784 1 0.0053839 0.016801 0.0221768 0.0005 
146 1 0.00735303 0.0143154 0.0205 0.0005 
2106 1 0.000500058 0.0151797 0.0221977 0.0005 
2329 1 0.000954186 0.0207288 0.0213352 0.0005 
1766 1 0.00743263 0.0149925 0.0221973 0.0005 
2215 1 0.00230919 0.0186118 0.0220665 0.0005 
2087 1 0.00565841 0.0179115 0.0219363 0.0005 
1971 1 0.0024794 0.0157118 0.022092 0.001 
302 1 0.00783356 0.0155202 0.0214487 0.0005 
2561 1 0.00468606 0.0181962 0.0221508 0.0005 
2524 1 0.000882991 0.0142587 0.0220969 0.0005 
2113 1 0.00643264 0.0171918 0.0221982 0.0005 
1697 1 0.00775986 0.0144846 0.0213976 0.0005 
1847 1 0.00249559 0.0171666 0.022457 0.0005 
161 1 0.0092515 0.0142622 0.0204998 0.0005 
1855 1 0.0111242 0.0142067 0.0209623 0.0005 
254 1 0.0128851 0.014703 0.0205 0.0005 
257 1 0.0120694 0.0148123 0.0215743 0.00075 
258 1 0.0114485 0.0150319 0.0204999 0.0005 
262 1 0.0138827 0.0145241 0.0205 0.0005 
263 1 0.0123139 0.015533 0.0205 0.0005 
264 1 0.0101525 0.0184953 0.0204999 0.0005 
265 1 0.00935961 0.0191046 0.0204999 0.0005 
267 1 0.0137795 0.016126 0.0212499 0.00125 
268 1 0.0114193 0.0180858 0.0204999 0.0005 
269 1 0.00988707 0.0150416 0.0205 0.0005 
270 1 0.0122327 0.0191453 0.0207499 0.00075 
271 1 0.0122593 0.0165603 0.0204999 0.0005 
272 1 0.0151765 0.0189172 0.0205 0.0005 
273 1 0.0104202 0.0158876 0.0205 0.0005 
274 1 0.0110154 0.0190005 0.0205 0.0005 
275 1 0.0101314 0.0197404 0.0205 0.0005 
276 1 0.0133148 0.020216 0.0214001 0.0005 
277 1 0.0113138 0.0199549 0.0204999 0.0005 
278 1 0.0123273 0.0206424 0.0207499 0.00075 
280 1 0.0114087 0.017086 0.0204999 0.0005 
281 1 0.0125171 0.0176892 0.0209706 0.00075 
282 1 0.0133113 0.0197803 0.0205 0.0005 
283 1 0.013675 0.0177036 0.0205 0.0005 
284 1 0.0134338 0.0186923 0.0205 0.0005 
285 1 0.0142285 0.0193326 0.0205 0.0005 
286 1 0.0143735 0.0183748 0.0207479 0.0005 
287 1 0.0132016 0.0189767 0.0218824 0.00075 
288 1 0.0120245 0.0160347 0.0213175 0.0005 
289 1 0.0150699 0.0199116 0.0205 0.0005 
290 1 0.0146495 0.0174462 0.0205 0.0005 
291 1 0.0091573 0.0181253 0.0204999 0.0005 
292 1 0.0104052 0.0172405 0.0204999 0.0005 
293 1 0.0148708 0.0204203 0.0213375 0.0005 
294 1 0.0141584 0.0203301 0.0205 0.0005 
295 1 0.00844523 0.0174229 0.0204999 0.0005 
296 1 0.0156431 0.0175591 0.0204999 0.0005 
297 1 0.00885422 0.0156997 0.0207499 0.00075 
298 1 0.0109453 0.0175792 0.0212703 0.0005 
300 1 0.0108155 0.0165684 0.0211165 0.0005 
301 1 0.0114097 0.0160329 0.0205 0.0005 
303 1 0.012365 0.0198961 0.0217519 0.0005 
304 1 0.00982356 0.0164504 0.0210735 0.0005 
305 1 0.0136564 0.0178829 0.0214835 0.0005 
306 1 0.0149631 0.0150544 0.0205 0.0005 
307 1 0.00991248 0.0155048 0.0213858 0.0005 
308 1 0.0116778 0.0169489 0.0215274 0.0005 
309 1 0.0124743 0.0208657 0.0219708 0.0005 
310 1 0.0120474 0.0159692 0.022315 0.0005 
311 1 0.00940886 0.0171565 0.0204999 0.0005 
312 1 0.00984931 0.0177878 0.021138 0.0005 
314 1 0.0111708 0.0159693 0.0218339 0.0005 
315 1 0.0102975 0.0191202 0.0218557 0.001 
316 1 0.0152788 0.0166278 0.0204999 0.0005 
317 1 0.0159847 0.0195077 0.0205 0.0005 
319 1 0.0108234 0.0151071 0.0212766 0.0005 
320 1 0.0157076 0.0157244 0.0205 0.0005 
321 1 0.00895489 0.018696 0.0213178 0.0005 
322 1 0.0141755 0.019707 0.0214258 0.0005 
323 1 0.00863957 0.0167304 0.0214237 0.0005 
331 1 0.01584 0.0163996 0.0212955 0.0005 
1603 1 0.00831106 0.014602 0.0205 0.0005 
1637 1 0.00887726 0.0176996 0.0213603 0.0005 
1721 1 0.015407 0.0155082 0.0214289 0.0005 
461 1 0.00863499 0.0205099 0.0212498 0.00125 
318 1 0.0115313 0.0183687 0.0214524 0.0005 
313 1 0.0113589 0.020271 0.0214476 0.0005 
279 1 0.0149326 0.0209631 0.0205 0.0005 
2191 1 0.0133387 0.0146607 0.0220992 0.0005 
465 1 0.0105322 0.0208977 0.0207499 0.00075 
1997 1 0.0132984 0.0174373 0.0223041 0.0005 
458 1 0.0102422 0.0206214 0.021934 0.0005 
2002 1 0.00876796 0.0182457 0.0221908 0.0005 
1886 1 0.0110699 0.0203148 0.0224039 0.0005 
2180 1 0.0119657 0.0190329 0.0220605 0.0005 
2218 1 0.0149283 0.0206466 0.0223098 0.0005 
2526 1 0.0110494 0.0150682 0.0222499 0.0005 
2353 1 0.0121099 0.0178101 0.0224092 0.00075 
2041 1 0.00867911 0.0156388 0.0224578 0.00075 
2457 1 0.0173611 0.0144356 0.0222013 0.0005 
1729 1 0.0218229 0.0163268 0.0219265 0.0005 
327 1 0.0235001 0.0145122 0.0205 0.0005 
333 1 0.0180297 0.0142585 0.0205 0.0005 
334 1 0.0215055 0.0145809 0.0205 0.0005 
336 1 0.0226083 0.0150553 0.0205 0.0005 
337 1 0.0170495 0.0152779 0.0209999 0.001 
338 1 0.0184547 0.0154357 0.0204998 0.0005 
339 1 0.01941 0.0150429 0.0205 0.0005 
340 1 0.0186481 0.0171936 0.0212213 0.0005 
341 1 0.0180037 0.0163283 0.0205 0.0005 
342 1 0.0174381 0.0181838 0.0205 0.0005 
343 1 0.0222359 0.016241 0.0207499 0.00075 
344 1 0.017971 0.0173376 0.0204999 0.0005 
345 1 0.019349 0.0162723 0.0207499 0.00075 
346 1 0.023497 0.0175119 0.0205 0.0005 
347 1 0.022305 0.0177929 0.02075 0.00075 
348 1 0.0212279 0.0155416 0.0205 0.0005 
349 1 0.0202667 0.0174128 0.0205 0.0005 
350 1 0.0184373 0.0182221 0.0205 0.0005 
351 1 0.0192703 0.0174975 0.0204999 0.0005 
352 1 0.0235001 0.0185117 0.0204999 0.0005 
353 1 0.0200945 0.01763 0.0217188 0.00075 
354 1 0.0167964 0.0169913 0.0207499 0.00075 
355 1 0.0209362 0.0184467 0.02075 0.00075 
356 1 0.0212408 0.0171869 0.0205 0.0005 
357 1 0.0197126 0.0183943 0.0204999 0.0005 
358 1 0.0235 0.0155121 0.0205 0.0005 
359 1 0.0205323 0.014811 0.0205 0.0005 
360 1 0.0190866 0.01821 0.0212604 0.0005 
361 1 0.0203546 0.0198294 0.02075 0.00075 
362 1 0.0189355 0.0193409 0.0207498 0.00075 
363 1 0.0235 0.016512 0.0205 0.0005 
364 1 0.0224747 0.0199074 0.0214999 0.0015 
366 1 0.0205601 0.0164544 0.0204999 0.0005 
367 1 0.0232135 0.0169634 0.0216299 0.00075 
368 1 0.0177858 0.0189479 0.0210433 0.0005 
369 1 0.0235 0.0181648 0.0214377 0.0005 
370 1 0.01992 0.0188365 0.0213726 0.0005 
371 1 0.01762 0.0177071 0.0213603 0.0005 
373 1 0.0180444 0.0201744 0.0212068 0.0005 
374 1 0.0174702 0.0197614 0.0205 0.0005 
376 1 0.0164383 0.0181653 0.0204999 0.0005 
377 1 0.0230971 0.0154403 0.021681 0.00075 
378 1 0.0206599 0.0207468 0.0215422 0.0005 
379 1 0.0168281 0.0190449 0.0207725 0.0005 
380 1 0.0210874 0.0166443 0.021328 0.0005 
381 1 0.0207708 0.0189351 0.0218886 0.0005 
382 1 0.0234995 0.0184023 0.0224091 0.0005 
383 1 0.0203831 0.0156355 0.0210457 0.0005 
385 1 0.0178096 0.0166831 0.0214145 0.0005 
386 1 0.019842 0.0143019 0.0210141 0.0005 
388 1 0.020179 0.0163835 0.0216777 0.0005 
1830 1 0.0215254 0.0179414 0.0220436 0.00075 
1972 1 0.0188231 0.0149807 0.0218807 0.001 
526 1 0.0189985 0.0208402 0.02075 0.00075 
375 1 0.0165127 0.0210197 0.0212499 0.00125 
1906 1 0.017018 0.0164235 0.0219677 0.0005 
2136 1 0.0235 0.0144632 0.0223484 0.0005 
527 1 0.021176 0.0210536 0.0205 0.0005 
2036 1 0.0161283 0.0156538 0.0224394 0.00075 
1866 1 0.0212037 0.0145071 0.0224785 0.0015 
2187 1 0.0198052 0.0159368 0.0224905 0.0005 
394 1 0.0052804 0.021444 0.0205 0.0005 
396 1 0.0019084 0.021285 0.0207499 0.00075 
397 1 0.00513497 0.0252306 0.0205 0.0005 
398 1 0.00581968 0.0241806 0.0207499 0.00075 
399 1 0.00456392 0.0227026 0.0209998 0.001 
400 1 0.00074965 0.0222377 0.0207497 0.00075 
401 1 0.00105536 0.0253189 0.0213729 0.0005 
402 1 0.000503782 0.0244368 0.0205 0.0005 
403 1 0.000499993 0.0254367 0.0205 0.0005 
404 1 0.00773571 0.0218109 0.0205 0.0005 
405 1 0.00249097 0.0248789 0.0205 0.0005 
406 1 0.00515497 0.0262318 0.0204999 0.0005 
407 1 0.00333345 0.0239214 0.0207498 0.00075 
408 1 0.000499876 0.0234367 0.0204999 0.0005 
409 1 0.00668091 0.0254086 0.02075 0.00075 
410 1 0.00363403 0.021637 0.0205 0.0005 
412 1 0.00167364 0.0239116 0.0213039 0.001 
413 1 0.00639145 0.0219822 0.02075 0.00075 
415 1 0.00658755 0.0266297 0.0204999 0.0005 
416 1 0.00227169 0.0259205 0.0211559 0.00075 
417 1 0.00754174 0.0263307 0.0204999 0.0005 
418 1 0.00418707 0.0259809 0.0204999 0.0005 
419 1 0.000499933 0.0246533 0.0218713 0.0005 
420 1 0.00675775 0.0276149 0.0204999 0.0005 
421 1 0.00459677 0.0241162 0.0204999 0.0005 
422 1 0.000499969 0.0230506 0.021666 0.0005 
423 1 0.000499959 0.0261354 0.0212154 0.0005 
424 1 0.00151919 0.0251684 0.0204999 0.0005 
426 1 0.00268933 0.0225666 0.0207499 0.00075 
427 1 0.00693695 0.0263127 0.0219191 0.00075 
428 1 0.00122203 0.0261358 0.0205 0.0005 
429 1 0.0041016 0.0249847 0.0204998 0.0005 
430 1 0.00325764 0.0255209 0.0204999 0.0005 
431 1 0.00590692 0.0263025 0.0211552 0.0005 
433 1 0.00146131 0.0271084 0.0205 0.0005 
434 1 0.00353651 0.0270141 0.0213458 0.0005 
435 1 0.00334318 0.0265171 0.0205 0.0005 
436 1 0.00610829 0.0230822 0.0217296 0.00075 
437 1 0.000503689 0.0271069 0.0214619 0.0005 
438 1 0.000499883 0.0268339 0.0204999 0.0005 
439 1 0.00125024 0.0262255 0.0222111 0.00075 
440 1 0.0044897 0.026804 0.0209802 0.0005 
442 1 0.00661375 0.0274347 0.0214729 0.0005 
445 1 0.00554733 0.027429 0.02075 0.00075 
446 1 0.00654891 0.0231967 0.0205 0.0005 
447 1 0.000499942 0.0277812 0.022408 0.0005 
450 1 0.00335818 0.027517 0.0204999 0.0005 
453 1 0.00704463 0.0241593 0.0205 0.0005 
454 1 0.00434645 0.0276691 0.0204998 0.0005 
455 1 0.00749136 0.0271206 0.0211109 0.0005 
456 1 0.0030238 0.0214841 0.0212776 0.0005 
594 1 0.00245138 0.0269692 0.0204999 0.0005 
629 1 0.00267979 0.026839 0.0218989 0.0005 
1594 1 0.00765608 0.0242817 0.0221356 0.00125 
522 1 0.00745334 0.0227702 0.0205 0.0005 
463 1 0.00779246 0.0248947 0.0204999 0.0005 
1824 1 0.00545256 0.0215925 0.0214774 0.0005 
615 1 0.00269321 0.0275933 0.0212427 0.0005 
1857 1 0.00114585 0.0216143 0.0217584 0.0005 
1939 1 0.00576131 0.0272812 0.0219725 0.0005 
1917 1 0.00401 0.0213649 0.0213907 0.0005 
605 1 0.00446724 0.0278137 0.0217354 0.00075 
606 1 0.00163925 0.0276432 0.0219128 0.00075 
579 1 0.00772239 0.0278777 0.0204998 0.0005 
2076 1 0.00194584 0.0251586 0.0220917 0.0005 
2088 1 0.00171946 0.0224009 0.0215205 0.0005 
2129 1 0.002698 0.0220442 0.0220396 0.0005 
589 1 0.00199239 0.0279916 0.0205 0.0005 
1819 1 0.00549492 0.0281667 0.0223532 0.0005 
451 1 0.000749947 0.0281053 0.02075 0.00075 
1765 1 0.00311894 0.0282875 0.0221909 0.00075 
2604 1 0.00352709 0.0227158 0.0220837 0.0005 
2530 1 0.00258807 0.0230565 0.0221301 0.0005 
513 1 0.00793167 0.0257367 0.0212033 0.0005 
459 1 0.0138329 0.0212756 0.0204999 0.0005 
448 1 0.00821031 0.0239862 0.0205 0.0005 
457 1 0.0149144 0.021495 0.0217809 0.0005 
460 1 0.0140637 0.0226796 0.0217569 0.0005 
462 1 0.00989221 0.0217098 0.0214546 0.0005 
464 1 0.00842123 0.0271625 0.0205 0.0005 
466 1 0.00886721 0.0227339 0.0209999 0.001 
467 1 0.00897399 0.0252168 0.0207498 0.00075 
468 1 0.0103563 0.0236224 0.0215484 0.00075 
469 1 0.00956094 0.0266897 0.0204999 0.0005 
470 1 0.00936747 0.024057 0.0205 0.0005 
471 1 0.012856 0.0242504 0.0205 0.0005 
473 1 0.0130539 0.0252305 0.0205 0.0005 
474 1 0.0139954 0.0239083 0.0204999 0.0005 
475 1 0.0117734 0.0229178 0.0205 0.0005 
476 1 0.0128291 0.0217595 0.0205 0.0005 
477 1 0.0111359 0.02451 0.0211401 0.0005 
478 1 0.0110537 0.0236322 0.0205 0.0005 
479 1 0.0133906 0.0216364 0.0216119 0.00075 
480 1 0.011336 0.0263698 0.0205 0.0005 
481 1 0.0123343 0.0248797 0.0214619 0.00075 
482 1 0.0140592 0.0249498 0.0211881 0.00075 
483 1 0.0118393 0.0255058 0.0204999 0.0005 
484 1 0.0118555 0.0242412 0.0204999 0.0005 
485 1 0.0122401 0.0235531 0.0211153 0.0005 
486 1 0.0150678 0.025217 0.0204999 0.0005 
487 1 0.0106675 0.0223915 0.0207499 0.00075 
488 1 0.015285 0.0232493 0.0205 0.0005 
489 1 0.0103313 0.0243239 0.0205 0.0005 
490 1 0.0133476 0.022869 0.02075 0.00075 
491 1 0.0142593 0.0259739 0.0204999 0.0005 
492 1 0.0108064 0.025204 0.0205 0.0005 
493 1 0.0104689 0.0271086 0.0205 0.0005 
494 1 0.0142948 0.0259497 0.0219017 0.0005 
495 1 0.0129145 0.0268055 0.0212499 0.00125 
496 1 0.0150286 0.0242178 0.0205 0.0005 
497 1 0.0149392 0.0267102 0.0205 0.0005 
498 1 0.0149921 0.0259464 0.0211798 0.0005 
499 1 0.0146506 0.026846 0.0214663 0.0005 
501 1 0.0146787 0.0221613 0.0207499 0.00075 
502 1 0.0145101 0.0233371 0.0211391 0.0005 
503 1 0.0157419 0.0247371 0.0210614 0.0005 
504 1 0.0122823 0.0223214 0.0211206 0.0005 
505 1 0.0103718 0.0261046 0.0205 0.0005 
506 1 0.0155206 0.0273027 0.0212708 0.0005 
507 1 0.0111719 0.027714 0.0213991 0.0005 
508 1 0.013128 0.0239133 0.0214013 0.0005 
509 1 0.0114586 0.0230374 0.0214705 0.0005 
510 1 0.00877809 0.0264125 0.0210568 0.0005 
511 1 0.0155076 0.026485 0.0218462 0.0005 
512 1 0.00928538 0.0242648 0.0214974 0.0005 
514 1 0.0117395 0.0217541 0.0205 0.0005 
516 1 0.0155066 0.0228301 0.022139 0.001 
517 1 0.0114355 0.0273647 0.0205 0.0005 
518 1 0.00941502 0.0276951 0.0205 0.0005 
519 1 0.0145342 0.0278668 0.0207499 0.00075 
520 1 0.0149551 0.0276105 0.022038 0.0005 
523 1 0.0150843 0.0241173 0.0214933 0.0005 
1723 1 0.0114725 0.0215656 0.0217089 0.00075 
1708 1 0.00854042 0.0279793 0.0217528 0.001 
1749 1 0.0142946 0.0219607 0.0224125 0.0005 
1978 1 0.00818109 0.02645 0.0218581 0.0005 
525 1 0.0159499 0.0225014 0.0205 0.0005 
1837 1 0.0152577 0.025179 0.02213 0.00075 
521 1 0.0101131 0.0277108 0.0212158 0.0005 
1895 1 0.0140837 0.0238466 0.0222041 0.00075 
651 1 0.0107304 0.0280738 0.0205 0.0005 
1704 1 0.00913654 0.021886 0.0222076 0.0005 
2406 1 0.00995295 0.0225354 0.0220156 0.0005 