ITEM: TIMESTEP
280000
ITEM: NUMBER OF ATOMS
2419
ITEM: BOX BOUNDS mm mm mm
-2.4e-06 0.0240024
-7.8e-06 0.0780078
-3e-06 0.030003
ITEM: ATOMS id type x y z radius 
324 1 0.00792882 0.00402254 0.0219999 0.002 
291 1 0.00285592 0.00150002 0.0214997 0.0015 
368 1 0.000500007 0.00149935 0.0205 0.0005 
784 1 0.0055586 0.00338191 0.02075 0.00075 
32 1 0.00529006 0.000500375 0.0205 0.0005 
241 1 0.00471511 0.00246025 0.0205 0.0005 
815 1 0.00125308 0.00215731 0.0205 0.0005 
448 1 0.0038335 0.00293223 0.0205 0.0005 
300 1 0.000537215 0.000500026 0.0205 0.0005 
442 1 0.00101997 0.0035522 0.0209999 0.001 
816 1 0.00596527 0.00494126 0.0205 0.0005 
710 1 0.00429001 0.000500199 0.0205 0.0005 
527 1 0.000500021 0.00486735 0.0205 0.0005 
256 1 0.000730568 0.00615067 0.0205 0.0005 
870 1 0.00769613 0.00600968 0.0204999 0.0005 
100 1 0.00479892 0.00269652 0.021468 0.0005 
153 1 0.00504494 0.00151621 0.0205 0.0005 
486 1 0.00359874 0.00509826 0.0222497 0.00225 
722 1 0.00146302 0.00513689 0.0205 0.0005 
864 1 0.00480532 0.000914244 0.0212705 0.0005 
503 1 0.000499996 0.00486938 0.0214999 0.0005 
561 1 0.00623474 0.00180681 0.02075 0.00075 
501 1 0.00582623 0.000516881 0.0213857 0.0005 
64 1 0.00632418 0.00635164 0.0209999 0.001 
954 1 0.00629022 0.000499997 0.0205 0.0005 
274 1 0.00758207 0.00705524 0.0205 0.0005 
75 1 0.00171151 0.0068839 0.0207499 0.00075 
390 1 0.000499987 0.00586697 0.0214307 0.0005 
887 1 0.00680201 0.00664672 0.0223909 0.0005 
380 1 0.00487241 0.00682104 0.0205 0.0005 
587 1 0.000499994 0.00392713 0.022356 0.0005 
370 1 0.00745485 0.000879113 0.0207499 0.00075 
28 1 0.000749683 0.000749808 0.021748 0.00075 
842 1 0.00624606 0.005817 0.0224461 0.0005 
220 1 0.00725654 0.000749937 0.022231 0.00075 
998 1 0.000749974 0.00703311 0.0218914 0.00075 
1070 1 0.00791564 0.00676961 0.0218366 0.00075 
1492 1 0.000499999 0.00491689 0.0224988 0.0005 
307 1 0.0078942 0.0020225 0.0205 0.0005 
1195 1 0.00837322 0.00163239 0.0214166 0.0005 
121 1 0.00869445 0.00606263 0.0204999 0.0005 
228 1 0.0094097 0.00536419 0.0204991 0.0005 
490 1 0.00998414 0.00454367 0.0205 0.0005 
199 1 0.0117517 0.00317819 0.0204999 0.0005 
395 1 0.0108748 0.00269735 0.0205 0.0005 
474 1 0.0139453 0.00176488 0.02075 0.00075 
282 1 0.010393 0.00132287 0.0205 0.0005 
590 1 0.00982218 0.000499923 0.0204998 0.0005 
176 1 0.013323 0.000500304 0.0205 0.0005 
289 1 0.0109608 0.000499868 0.0204999 0.0005 
362 1 0.00882226 0.00049999 0.0204999 0.0005 
783 1 0.0108331 0.00384106 0.0205 0.0005 
51 1 0.0131142 0.0029851 0.0205 0.0005 
233 1 0.00970474 0.00233573 0.0207499 0.00075 
217 1 0.0109029 0.00493838 0.0205 0.0005 
636 1 0.0118666 0.00702124 0.0205001 0.0005 
549 1 0.0104932 0.00440752 0.021365 0.0005 
126 1 0.0126253 0.0046735 0.0215 0.0015 
676 1 0.0102373 0.000812768 0.0216362 0.00075 
209 1 0.0137686 0.00597448 0.0205 0.0005 
730 1 0.00874962 0.0014981 0.0205 0.0005 
764 1 0.0104931 0.00640625 0.0213934 0.00125 
311 1 0.0147153 0.00630361 0.0216159 0.001 
763 1 0.00987328 0.00354973 0.0205 0.0005 
66 1 0.0143528 0.00479563 0.0204999 0.0005 
61 1 0.0151491 0.00540034 0.0204999 0.0005 
108 1 0.0150322 0.00336792 0.0212497 0.00125 
89 1 0.00843758 0.000499992 0.0214229 0.0005 
155 1 0.0120242 0.00164185 0.021292 0.00125 
178 1 0.0150496 0.000749882 0.0207498 0.00075 
364 1 0.0108764 0.00324458 0.0216335 0.00075 
895 1 0.0112059 0.000504201 0.0223652 0.0005 
598 1 0.0129726 0.000500172 0.022219 0.0005 
171 1 0.0130892 0.00699132 0.0207585 0.00075 
161 1 0.0232501 0.000749857 0.0207498 0.00075 
159 1 0.0226924 0.00334001 0.0204999 0.0005 
204 1 0.0234991 0.00475352 0.0205 0.0005 
219 1 0.0214142 0.00099987 0.0209999 0.001 
333 1 0.02325 0.00390655 0.0214645 0.00075 
142 1 0.0232502 0.00224969 0.0207499 0.00075 
200 1 0.0204342 0.00242773 0.0207498 0.00075 
340 1 0.0218146 0.00433859 0.0207498 0.00075 
452 1 0.0235 0.00576915 0.0205 0.0005 
518 1 0.0191381 0.00075727 0.02075 0.00075 
185 1 0.0167233 0.00525572 0.0212501 0.00125 
31 1 0.0170339 0.00149957 0.0214998 0.0015 
123 1 0.0228159 0.000999888 0.0224263 0.001 
273 1 0.021874 0.00284154 0.0216538 0.001 
113 1 0.0169357 0.0032445 0.0205 0.0005 
544 1 0.0186678 0.00415204 0.021 0.001 
577 1 0.0232503 0.00539223 0.0216708 0.00075 
652 1 0.0184014 0.00563005 0.0215762 0.0005 
290 1 0.0189346 0.00244086 0.0207498 0.00075 
281 1 0.0202449 0.00366243 0.0215799 0.00075 
190 1 0.0177574 0.00691139 0.0207498 0.00075 
57 1 0.0203808 0.00590669 0.0214997 0.0015 
143 1 0.022612 0.00530842 0.0205 0.0005 
853 1 0.0184847 0.00575186 0.0205 0.0005 
106 1 0.0220977 0.00493092 0.0218131 0.0005 
1012 1 0.0183901 0.00676425 0.0221016 0.00075 
109 1 0.0189937 0.00695059 0.0205 0.0005 
6 1 0.022627 0.00688324 0.0209999 0.001 
1359 1 0.00289077 0.00727658 0.0205 0.0005 
588 1 0.00388917 0.00722014 0.0205 0.0005 
360 1 0.00615722 0.0120457 0.0205 0.0005 
154 1 0.00466124 0.00819774 0.0207499 0.00075 
13 1 0.000510811 0.00713468 0.0205 0.0005 
879 1 0.00575439 0.00764588 0.0204999 0.0005 
137 1 0.000578783 0.00814425 0.0205 0.0005 
44 1 0.00497193 0.00968257 0.0207498 0.00075 
401 1 0.00603059 0.0111555 0.0221575 0.00125 
1166 1 0.0057936 0.00774674 0.0219132 0.00075 
1234 1 0.00564594 0.00889906 0.0214524 0.0005 
323 1 0.00245349 0.00918644 0.0220575 0.002 
820 1 0.000499856 0.00926402 0.0204999 0.0005 
1067 1 0.00751845 0.0123853 0.0205 0.0005 
713 1 0.00234743 0.0111527 0.0205 0.0005 
881 1 0.000499985 0.010268 0.0205 0.0005 
943 1 0.00333954 0.0112994 0.0205 0.0005 
673 1 0.00456964 0.0111272 0.0207496 0.00075 
174 1 0.00100184 0.0115902 0.0209999 0.001 
447 1 0.00582387 0.00864393 0.0205 0.0005 
737 1 0.005437 0.0127487 0.0205 0.0005 
646 1 0.00129565 0.013994 0.0205 0.0005 
508 1 0.000500568 0.0133822 0.0205 0.0005 
872 1 0.00745136 0.0111624 0.02075 0.00075 
439 1 0.00671322 0.013746 0.0212499 0.00125 
891 1 0.00675281 0.00769911 0.0204998 0.0005 
427 1 0.0045475 0.00765431 0.0218698 0.0005 
1190 1 0.00491004 0.00861711 0.0220782 0.0005 
479 1 0.000499985 0.012946 0.0213998 0.0005 
911 1 0.00431091 0.0108476 0.0222552 0.0005 
296 1 0.00337389 0.0134329 0.0222499 0.00225 
521 1 0.000575637 0.0135438 0.0221978 0.0005 
35 1 0.00773484 0.0090822 0.021559 0.0015 
196 1 0.000500463 0.0139904 0.0212937 0.0005 
611 1 0.00829352 0.0137908 0.0204998 0.0005 
275 1 0.0144079 0.00779277 0.0207499 0.00075 
46 1 0.00881374 0.00728134 0.0207499 0.00075 
556 1 0.0137744 0.00915228 0.02075 0.00075 
287 1 0.0108375 0.0104415 0.0205002 0.0005 
865 1 0.0135773 0.0118805 0.0205004 0.0005 
756 1 0.0116534 0.00891222 0.0214998 0.0015 
318 1 0.013556 0.00752891 0.0220818 0.00075 
686 1 0.00938644 0.00870053 0.0204992 0.0005 
10 1 0.0152759 0.00865664 0.0204999 0.0005 
569 1 0.0127739 0.0102357 0.0205002 0.0005 
252 1 0.00869028 0.0104843 0.0205 0.0005 
188 1 0.0151351 0.012394 0.0216458 0.0015 
772 1 0.0128118 0.0112357 0.0205 0.0005 
709 1 0.0097557 0.00986745 0.02075 0.00075 
1061 1 0.0113313 0.011311 0.0205009 0.0005 
110 1 0.0135602 0.0128985 0.0205051 0.0005 
1118 1 0.00974699 0.00936613 0.0219012 0.0005 
59 1 0.0114492 0.0130543 0.0205 0.0005 
974 1 0.0114358 0.0140546 0.0205 0.0005 
734 1 0.0124611 0.0123968 0.0208267 0.00075 
968 1 0.0120443 0.0111293 0.0215128 0.00075 
62 1 0.00960873 0.0123028 0.0220181 0.002 
1238 1 0.0099658 0.0080069 0.0209249 0.0005 
1028 1 0.0139156 0.0106989 0.0207804 0.00075 
1653 1 0.0146923 0.00831845 0.0218477 0.0005 
80 1 0.0152975 0.00983715 0.0214249 0.001 
810 1 0.00967977 0.00806162 0.0221661 0.00075 
43 1 0.0158293 0.0138791 0.0205 0.0005 
1080 1 0.0133114 0.0106427 0.0221552 0.00075 
1922 1 0.0159842 0.00834329 0.0211323 0.0005 
1056 1 0.0167583 0.0101504 0.0221441 0.0005 
714 1 0.0160362 0.0107631 0.0205019 0.0005 
192 1 0.0162045 0.0071369 0.02075 0.00075 
1846 1 0.0162727 0.00913862 0.0205 0.0005 
342 1 0.017183 0.0121379 0.0207499 0.00075 
319 1 0.0212921 0.00739319 0.0205 0.0005 
293 1 0.0189222 0.0106473 0.0217516 0.00175 
735 1 0.0210817 0.00973767 0.021473 0.0005 
308 1 0.02026 0.00836093 0.0209997 0.001 
49 1 0.0174412 0.00948791 0.0205 0.0005 
146 1 0.0189083 0.00794679 0.0204995 0.0005 
578 1 0.0229328 0.0088595 0.021007 0.001 
139 1 0.0172667 0.0138512 0.0211107 0.001 
90 1 0.018445 0.00819628 0.0216327 0.00075 
71 1 0.021527 0.00904355 0.0205 0.0005 
659 1 0.0171732 0.00829286 0.02075 0.00075 
967 1 0.0170487 0.0107713 0.0205 0.0005 
130 1 0.021499 0.011928 0.0205 0.0005 
41 1 0.0218572 0.0103997 0.02075 0.00075 
231 1 0.0235001 0.0101519 0.0204999 0.0005 
279 1 0.0235 0.00761373 0.0219785 0.0005 
693 1 0.0214421 0.00761563 0.0215921 0.0005 
725 1 0.0230637 0.0112943 0.020758 0.00075 
697 1 0.0207941 0.00972422 0.0205 0.0005 
330 1 0.0226695 0.0127414 0.0207578 0.00075 
78 1 0.022476 0.013949 0.0204999 0.0005 
800 1 0.0208352 0.011169 0.0205 0.0005 
538 1 0.023499 0.0121973 0.0215184 0.0005 
1236 1 0.0181159 0.0127601 0.0217356 0.0005 
812 1 0.0220492 0.0118221 0.0213346 0.0005 
944 1 0.0234998 0.0134622 0.0217979 0.0005 
794 1 0.0170861 0.0120276 0.0220163 0.0005 
592 1 0.0182793 0.0126844 0.0205 0.0005 
910 1 0.0214227 0.00867168 0.0222695 0.00075 
523 1 0.0186464 0.013615 0.0205 0.0005 
956 1 0.0192603 0.0124872 0.0205005 0.0005 
350 1 0.0206785 0.0134397 0.0215413 0.0015 
639 1 0.0226384 0.0140979 0.0214753 0.0005 
1899 1 0.0168227 0.00996602 0.0211236 0.0005 
1138 1 0.0232498 0.0100999 0.0222024 0.00075 
272 1 0.0234889 0.0137969 0.0205 0.0005 
770 1 0.0234999 0.0113054 0.0219706 0.0005 
1517 1 0.0214374 0.011078 0.0217258 0.0005 
1498 1 0.0187989 0.0132975 0.0222653 0.0005 
782 1 0.000503532 0.0146342 0.0220589 0.0005 
70 1 0.000500924 0.0146033 0.0205 0.0005 
888 1 0.00291556 0.0160664 0.0205 0.0005 
550 1 0.00151945 0.017644 0.0205 0.0005 
1 1 0.00739304 0.0155593 0.02075 0.00075 
529 1 0.00124978 0.0160283 0.0212497 0.00125 
269 1 0.00704549 0.0176822 0.02125 0.00125 
19 1 0.00481134 0.0164802 0.0212499 0.00125 
1077 1 0.00637424 0.0162393 0.0205 0.0005 
877 1 0.00764561 0.0198363 0.0204999 0.0005 
1060 1 0.00769794 0.0153408 0.0219631 0.0005 
1004 1 0.0055563 0.0190968 0.02075 0.00075 
688 1 0.000537821 0.0190922 0.0205 0.0005 
896 1 0.00681021 0.0192786 0.0205 0.0005 
1660 1 0.00488661 0.018068 0.0205 0.0005 
972 1 0.00657222 0.0158836 0.0219868 0.00075 
223 1 0.00322365 0.0189903 0.0217499 0.00175 
700 1 0.00461602 0.02081 0.02075 0.00075 
1416 1 0.00318263 0.0209513 0.0205 0.0005 
436 1 0.00780368 0.0163176 0.022149 0.0005 
678 1 0.00102275 0.020496 0.0209999 0.001 
315 1 0.00307338 0.0164176 0.0222373 0.00075 
600 1 0.00651912 0.020796 0.0214337 0.00125 
576 1 0.000752225 0.0179447 0.0215427 0.00075 
1094 1 0.00557872 0.0184347 0.0223823 0.00075 
1859 1 0.00762625 0.0193402 0.0213681 0.0005 
1884 1 0.000507067 0.0191776 0.0214958 0.0005 
1682 1 0.00799411 0.020451 0.0223952 0.0005 
430 1 0.00206322 0.017149 0.0223192 0.0005 
748 1 0.00798885 0.0143019 0.0223127 0.0005 
1578 1 0.00337102 0.0212159 0.0214524 0.0005 
1570 1 0.00803485 0.0189153 0.0204998 0.0005 
1144 1 0.00826658 0.0207046 0.0214552 0.0005 
1196 1 0.00840048 0.0171179 0.0222447 0.0005 
695 1 0.00855033 0.0147317 0.0212815 0.00075 
54 1 0.00889415 0.0164242 0.0209999 0.001 
786 1 0.00939136 0.0149956 0.0222628 0.0005 
180 1 0.0100189 0.0190125 0.0220175 0.002 
221 1 0.0112646 0.015782 0.0214999 0.0015 
118 1 0.0138112 0.0147727 0.0212499 0.00125 
717 1 0.0120227 0.0187781 0.0205 0.0005 
1232 1 0.00967013 0.0142899 0.0205 0.0005 
934 1 0.0133912 0.0192378 0.02075 0.00075 
1310 1 0.0123872 0.0178454 0.0205 0.0005 
1212 1 0.0148768 0.0187477 0.0205 0.0005 
838 1 0.0159551 0.0159505 0.0219138 0.001 
624 1 0.0133272 0.0171574 0.0205 0.0005 
1035 1 0.0114165 0.0175918 0.0205 0.0005 
1592 1 0.0122846 0.0197922 0.0205 0.0005 
1697 1 0.00851959 0.0203221 0.0205012 0.0005 
2033 1 0.0123902 0.0202033 0.0216641 0.0005 
1264 1 0.0101127 0.0210061 0.0205024 0.0005 
1164 1 0.0116408 0.0208761 0.0207643 0.00075 
2117 1 0.0155591 0.0144279 0.0212947 0.0005 
982 1 0.0155647 0.021217 0.0205 0.0005 
1448 1 0.012085 0.0175154 0.0222332 0.0005 
2386 1 0.0135318 0.0174328 0.0219547 0.00075 
189 1 0.0160814 0.0148689 0.0205 0.0005 
1338 1 0.0165137 0.0178856 0.0205 0.0005 
1193 1 0.0187755 0.0141993 0.0213895 0.0005 
198 1 0.016582 0.0189066 0.0220589 0.00125 
345 1 0.0191707 0.0144669 0.0205 0.0005 
741 1 0.0179537 0.0150785 0.0216534 0.0005 
450 1 0.01825 0.0148543 0.0205 0.0005 
1311 1 0.0169823 0.0209659 0.0205 0.0005 
947 1 0.0179292 0.0186306 0.0205 0.0005 
260 1 0.0178938 0.0171257 0.0213234 0.001 
591 1 0.0222115 0.0151447 0.0207498 0.00075 
465 1 0.0189635 0.0164493 0.0205093 0.0005 
719 1 0.0190811 0.0154595 0.0212706 0.00075 
628 1 0.0234992 0.0162944 0.0205 0.0005 
42 1 0.022152 0.0166435 0.0207499 0.00075 
747 1 0.02098 0.0151523 0.0205106 0.0005 
813 1 0.0200099 0.0161456 0.0205 0.0005 
787 1 0.0190084 0.0178308 0.0204999 0.0005 
492 1 0.0197202 0.0171042 0.0205014 0.0005 
238 1 0.0234998 0.0175053 0.0205 0.0005 
1216 1 0.0201704 0.0166633 0.0218634 0.00075 
1230 1 0.017212 0.0155623 0.0207495 0.00075 
566 1 0.0208891 0.0174532 0.0207724 0.00075 
1333 1 0.0210123 0.0161878 0.0205 0.0005 
1091 1 0.0199815 0.0182768 0.0205 0.0005 
1398 1 0.0203315 0.0205943 0.0205 0.0005 
1189 1 0.0234976 0.0145448 0.0211637 0.0005 
1427 1 0.0199824 0.0150505 0.0205 0.0005 
898 1 0.0196015 0.0176453 0.0213385 0.0005 
1253 1 0.0194378 0.014819 0.0223018 0.0005 
1452 1 0.0205888 0.0193955 0.0207541 0.00075 
1488 1 0.0190693 0.0190764 0.0208025 0.00075 
1124 1 0.0234788 0.0152925 0.0205 0.0005 
1020 1 0.0225008 0.0185479 0.0218962 0.0015 
1401 1 0.0216027 0.0157463 0.022276 0.001 
1298 1 0.0203267 0.0155109 0.0213879 0.0005 
1170 1 0.0232498 0.015717 0.0216687 0.00075 
1831 1 0.0182197 0.0198624 0.0213174 0.0005 
1796 1 0.0192788 0.0183568 0.0219638 0.0005 
957 1 0.0234972 0.0197021 0.0205 0.0005 
1320 1 0.019104 0.0205779 0.02075 0.00075 
1598 1 0.0201817 0.0203767 0.0216109 0.0005 
1437 1 0.0234644 0.0203094 0.0218815 0.0005 
1184 1 0.0234988 0.0168937 0.0213214 0.0005 
1692 1 0.0204667 0.0184258 0.0215447 0.0005 
1828 1 0.0183705 0.0187528 0.0217887 0.0005 
1202 1 0.0211732 0.0203694 0.0214656 0.0005 
1460 1 0.021941 0.0208441 0.0224137 0.0005 
1219 1 0.0224439 0.0210303 0.0209999 0.001 
1984 1 0.0193005 0.020078 0.0219862 0.0005 
1767 1 0.0200806 0.0178319 0.0223001 0.0005 
1434 1 0.0232481 0.0144647 0.0225095 0.00075 
1293 1 0.00222333 0.0212486 0.0205 0.0005 
482 1 0.000500044 0.0218101 0.0205 0.0005 
12 1 0.00161612 0.0223101 0.0207588 0.00075 
952 1 0.00543478 0.0244679 0.0205 0.0005 
1081 1 0.0070185 0.0244702 0.0205 0.0005 
904 1 0.0062281 0.0238576 0.0205 0.0005 
1439 1 0.00535968 0.022981 0.0207499 0.00075 
831 1 0.00401036 0.0240669 0.0210005 0.001 
534 1 0.000753911 0.0235702 0.02075 0.00075 
1423 1 0.00290012 0.0249424 0.0205 0.0005 
1406 1 0.00179375 0.0243099 0.0205 0.0005 
483 1 0.000499998 0.0248915 0.0205 0.0005 
1394 1 0.00725314 0.0228793 0.0209999 0.001 
1483 1 0.00539312 0.0217567 0.0205 0.0005 
1512 1 0.00232535 0.0233066 0.0205 0.0005 
752 1 0.0048067 0.0252475 0.0205 0.0005 
978 1 0.00799115 0.0253345 0.0205002 0.0005 
1805 1 0.00312388 0.0222204 0.02075 0.00075 
1576 1 0.000499997 0.0245633 0.0214653 0.0005 
1373 1 0.00618589 0.0254957 0.02075 0.00075 
1860 1 0.00441324 0.0220946 0.0205 0.0005 
946 1 0.00589426 0.0241317 0.0222959 0.00125 
1625 1 0.000532484 0.021823 0.0215056 0.0005 
1455 1 0.00211495 0.0237736 0.021911 0.001 
1942 1 0.00481899 0.0219394 0.0217913 0.00075 
338 1 0.00177208 0.0265073 0.0217497 0.00175 
1698 1 0.00765912 0.0247296 0.0215428 0.00075 
991 1 0.00473437 0.0268257 0.0212528 0.00125 
1662 1 0.00359688 0.0227861 0.0221246 0.00075 
1926 1 0.0005355 0.0237123 0.0223335 0.0005 
1520 1 0.00628335 0.0260942 0.021843 0.0005 
1143 1 0.00329834 0.0282196 0.02075 0.00075 
2021 1 0.00716385 0.0275916 0.0211782 0.0005 
1103 1 0.0052494 0.0283194 0.0205 0.0005 
1208 1 0.00808747 0.0240479 0.0205 0.0005 
1757 1 0.0149072 0.0220329 0.0217263 0.0005 
1577 1 0.0147204 0.0217683 0.0205 0.0005 
1636 1 0.0133423 0.0217676 0.0219563 0.001 
1350 1 0.0138329 0.022975 0.0205 0.0005 
919 1 0.00906816 0.0267379 0.022281 0.00175 
780 1 0.0126786 0.025033 0.0205013 0.0005 
353 1 0.0155574 0.023983 0.0205 0.0005 
1294 1 0.0102005 0.0227796 0.0205 0.0005 
1180 1 0.0106254 0.0218726 0.0205005 0.0005 
1462 1 0.0115187 0.0245865 0.0205619 0.0005 
1467 1 0.0129118 0.0236053 0.0205 0.0005 
1343 1 0.00897289 0.0214601 0.0207498 0.00075 
1552 1 0.0117083 0.0223882 0.0209286 0.00075 
1602 1 0.0114119 0.0256556 0.0205 0.0005 
1621 1 0.0131751 0.0246597 0.0216163 0.00075 
861 1 0.0146759 0.0249074 0.0207554 0.00075 
1643 1 0.00991299 0.0237738 0.0205 0.0005 
1539 1 0.0138132 0.024039 0.0205 0.0005 
1330 1 0.0143785 0.0246159 0.0219549 0.0005 
1192 1 0.0147381 0.0261328 0.0205 0.0005 
1041 1 0.0105775 0.0238141 0.0225991 0.0015 
1614 1 0.00898824 0.022962 0.0207506 0.00075 
1693 1 0.015294 0.0225874 0.0205 0.0005 
1618 1 0.00886195 0.0241835 0.0211178 0.0005 
1221 1 0.0147366 0.0234133 0.0212549 0.00075 
1915 1 0.0137429 0.0258661 0.0204993 0.0005 
1869 1 0.0101855 0.0257087 0.0205 0.0005 
1601 1 0.0111845 0.0215519 0.0220621 0.00075 
1655 1 0.00873491 0.0221218 0.0223522 0.001 
1870 1 0.0143769 0.0274107 0.02075 0.00075 
2193 1 0.0109438 0.0267114 0.0205353 0.0005 
2263 1 0.0140848 0.0255837 0.02201 0.0005 
2270 1 0.0127011 0.0266082 0.0216917 0.00125 
1753 1 0.015645 0.0241402 0.0217177 0.0005 
862 1 0.0155555 0.0269695 0.0205005 0.0005 
1775 1 0.0158927 0.0229733 0.0214711 0.0005 
1935 1 0.0104474 0.0279549 0.0208823 0.0005 
505 1 0.00917483 0.0281668 0.0205146 0.0005 
2004 1 0.0150126 0.0254392 0.0223536 0.0005 
1648 1 0.0179521 0.0212907 0.0224271 0.00125 
1105 1 0.0210549 0.021299 0.0205 0.0005 
1738 1 0.0179437 0.0212742 0.0205 0.0005 
1563 1 0.01655 0.023833 0.0205 0.0005 
1017 1 0.0164195 0.0220943 0.0207553 0.00075 
144 1 0.0163763 0.025241 0.021 0.001 
152 1 0.0208494 0.0230068 0.0205017 0.0005 
1292 1 0.0184253 0.0244096 0.0208229 0.00075 
512 1 0.020019 0.0265208 0.0205 0.0005 
1288 1 0.0176233 0.0223167 0.0204999 0.0005 
1048 1 0.0188307 0.0221304 0.0207646 0.00075 
1415 1 0.0215682 0.0221645 0.0205 0.0005 
1087 1 0.0234972 0.0255825 0.0205 0.0005 
1176 1 0.01904 0.0257851 0.02075 0.00075 
1269 1 0.023249 0.0226616 0.02075 0.00075 
1507 1 0.0235 0.0246918 0.0218991 0.0005 
1574 1 0.0234983 0.0266405 0.0205004 0.0005 
1472 1 0.02325 0.0242682 0.02075 0.00075 
1590 1 0.0220479 0.0240297 0.0205 0.0005 
1634 1 0.0196125 0.0234908 0.0207627 0.00075 
908 1 0.0220761 0.0230286 0.0205 0.0005 
1646 1 0.0182632 0.0232128 0.0205001 0.0005 
1927 1 0.0178533 0.0264268 0.0205001 0.0005 
1897 1 0.0190139 0.0237363 0.0221162 0.00075 
1370 1 0.0232482 0.0279364 0.02075 0.00075 
1243 1 0.0208418 0.0250889 0.0212689 0.00125 
1978 1 0.017778 0.025429 0.0205 0.0005 
1881 1 0.0176243 0.0247949 0.0217028 0.0005 
1514 1 0.020591 0.0220775 0.0220134 0.00125 
1925 1 0.0218555 0.0232804 0.0214431 0.0005 
1768 1 0.0171057 0.0270913 0.0205 0.0005 
1794 1 0.0173382 0.0233219 0.0216759 0.001 
1527 1 0.0189226 0.025246 0.0221691 0.00075 
1876 1 0.0167857 0.0245463 0.0223479 0.0005 
1106 1 0.0187763 0.027708 0.0212551 0.00125 
1323 1 0.0203521 0.0278096 0.0205 0.0005 
1090 1 0.0227498 0.0264842 0.0220818 0.00125 
2243 1 0.0160302 0.0268868 0.0216546 0.00075 
1837 1 0.0173319 0.0274615 0.0222131 0.0005 
1015 1 0.0216475 0.0280942 0.0205 0.0005 
1974 1 0.0234975 0.0280633 0.0222138 0.0005 
1267 1 0.0208363 0.0277544 0.0222895 0.001 
162 1 0.000500336 0.0329715 0.0205 0.0005 
259 1 0.00175738 0.0332346 0.0205 0.0005 
522 1 0.000861458 0.0341418 0.02075 0.00075 
348 1 0.00200467 0.0289513 0.0205055 0.0005 
337 1 0.00301936 0.0333109 0.02075 0.00075 
897 1 0.000499999 0.0353162 0.0205 0.0005 
980 1 0.00625548 0.0283299 0.0205 0.0005 
638 1 0.00343131 0.0347701 0.02075 0.00075 
506 1 0.000499996 0.0348328 0.0217269 0.0005 
1084 1 0.00135284 0.0313511 0.02075 0.00075 
1355 1 0.00207346 0.0344724 0.0205 0.0005 
1451 1 0.00451608 0.0290009 0.0205 0.0005 
412 1 0.00120388 0.0327394 0.0218049 0.001 
1285 1 0.000815977 0.0286418 0.02075 0.00075 
1607 1 0.00170744 0.0301789 0.0205 0.0005 
1529 1 0.00485027 0.034844 0.0214506 0.00075 
1290 1 0.000499998 0.0298251 0.0205 0.0005 
1449 1 0.00286218 0.0297316 0.0205073 0.0005 
1761 1 0.00534865 0.0336704 0.0214214 0.0005 
1760 1 0.00184282 0.0341384 0.0215242 0.0005 
1480 1 0.0068615 0.0293939 0.0207533 0.00075 
1611 1 0.00379982 0.0351051 0.02214 0.0005 
2278 1 0.00294791 0.0308487 0.0205 0.0005 
2244 1 0.00215053 0.0287556 0.021498 0.0005 
2306 1 0.00595811 0.0322504 0.02075 0.00075 
2343 1 0.00577287 0.029977 0.0205159 0.0005 
2387 1 0.00705053 0.0334481 0.021247 0.00075 
2407 1 0.00450157 0.0319026 0.021093 0.0005 
138 1 0.00818847 0.0284511 0.0205 0.0005 
886 1 0.00929365 0.0324174 0.0205 0.0005 
1249 1 0.0144093 0.032151 0.02075 0.00075 
1154 1 0.0110581 0.0328382 0.0205015 0.0005 
609 1 0.0120397 0.0330462 0.0205 0.0005 
1134 1 0.00916938 0.0337309 0.02075 0.00075 
1340 1 0.0113647 0.0338673 0.0205 0.0005 
1678 1 0.0123561 0.034137 0.0205 0.0005 
1703 1 0.0117922 0.0317067 0.0205073 0.0005 
1095 1 0.0136889 0.0338372 0.0205 0.0005 
1872 1 0.00851276 0.0296581 0.0218697 0.00125 
1167 1 0.0152186 0.0351702 0.0204999 0.0005 
1815 1 0.0103588 0.0333978 0.0210004 0.0005 
1348 1 0.0135155 0.030134 0.0205168 0.0005 
1594 1 0.0150827 0.034814 0.0214244 0.0005 
2043 1 0.010396 0.0289473 0.0205 0.0005 
1867 1 0.00934507 0.0344592 0.0220494 0.00075 
1793 1 0.0154409 0.0290789 0.022066 0.00075 
2242 1 0.0126589 0.0308669 0.0216636 0.001 
2245 1 0.0112137 0.032081 0.021579 0.00075 
2266 1 0.0134492 0.0287518 0.0212283 0.0005 
1954 1 0.0112535 0.030059 0.0204984 0.0005 
924 1 0.0118803 0.0350803 0.0205 0.0005 
1762 1 0.0106202 0.0340748 0.021893 0.0005 
640 1 0.0102994 0.0347623 0.02075 0.00075 
2323 1 0.0131594 0.0348449 0.020963 0.0005 
2362 1 0.014715 0.0298995 0.0207092 0.0005 
2347 1 0.0122612 0.0347717 0.0224283 0.0005 
1361 1 0.0159305 0.0296088 0.0207501 0.00075 
2202 1 0.0144639 0.0304848 0.0224355 0.001 
1083 1 0.0162555 0.033521 0.0215652 0.00125 
698 1 0.0169409 0.0316663 0.0212599 0.00075 
1786 1 0.016683 0.0286336 0.0204999 0.0005 
1409 1 0.0176586 0.0288922 0.0205005 0.0005 
1113 1 0.019023 0.0296273 0.0207499 0.00075 
1044 1 0.0209525 0.0297922 0.0212499 0.00125 
557 1 0.0205627 0.0341396 0.0212499 0.00125 
304 1 0.0224803 0.0311134 0.0205 0.0005 
1142 1 0.0225337 0.0333935 0.0205 0.0005 
1335 1 0.017856 0.033059 0.0205 0.0005 
1273 1 0.0224942 0.0349347 0.0212123 0.0005 
1414 1 0.0234995 0.0342274 0.0205 0.0005 
1016 1 0.0232376 0.0323551 0.02075 0.00075 
1531 1 0.0188374 0.0333213 0.0205 0.0005 
1329 1 0.0234997 0.0291544 0.0205 0.0005 
1318 1 0.0196999 0.0328112 0.0205 0.0005 
1305 1 0.0194784 0.0310563 0.0207497 0.00075 
1258 1 0.0234991 0.0301588 0.0205007 0.0005 
1695 1 0.0184005 0.0347084 0.0209999 0.001 
1224 1 0.0179868 0.030718 0.0207501 0.00075 
878 1 0.023245 0.0336166 0.0215614 0.00075 
1213 1 0.0207636 0.0318891 0.02075 0.00075 
1447 1 0.0180965 0.0295139 0.0219241 0.00075 
1603 1 0.0171564 0.0297582 0.0205 0.0005 
1403 1 0.0193194 0.0303143 0.0217683 0.0005 
1445 1 0.0235 0.0311588 0.0205 0.0005 
1362 1 0.0232215 0.0302882 0.0217125 0.00075 
1442 1 0.0193847 0.0292656 0.0218902 0.0005 
1626 1 0.0186996 0.0322271 0.0205982 0.0005 
889 1 0.023366 0.035219 0.0205 0.0005 
1534 1 0.022655 0.0288731 0.0217611 0.00075 
1579 1 0.0219118 0.0325881 0.0214155 0.00075 
1854 1 0.0168316 0.028502 0.0217339 0.00075 
1862 1 0.0175867 0.0354622 0.0221056 0.0005 
1468 1 0.0196446 0.0321336 0.0224262 0.00125 
1227 1 0.0181623 0.0334669 0.02221 0.00075 
672 1 0.00576716 0.0359088 0.02075 0.00075 
1073 1 0.00444359 0.0366364 0.0207502 0.00075 
249 1 0.00200388 0.0368533 0.0219998 0.002 
960 1 0.00589197 0.0375772 0.02075 0.00075 
535 1 0.000501253 0.0381781 0.0205 0.0005 
844 1 0.00371033 0.0379481 0.0205 0.0005 
60 1 0.00472006 0.0395626 0.0217497 0.00175 
366 1 0.00127259 0.0388169 0.0205 0.0005 
680 1 0.00237357 0.0393545 0.02075 0.00075 
733 1 0.00196036 0.0423923 0.0205 0.0005 
1108 1 0.000750253 0.0399251 0.02075 0.00075 
316 1 0.000500018 0.0388168 0.0212766 0.0005 
1276 1 0.00254564 0.041097 0.0209999 0.001 
1177 1 0.00427047 0.0425381 0.02125 0.00125 
1372 1 0.00680253 0.0415264 0.0220095 0.00075 
949 1 0.00600043 0.0416677 0.02075 0.00075 
1191 1 0.00100358 0.0415468 0.022205 0.001 
91 1 0.00744815 0.0404784 0.0207557 0.00075 
1674 1 0.00695974 0.0384502 0.0220617 0.00075 
1586 1 0.00571387 0.0424901 0.0222377 0.0005 
835 1 0.00672715 0.0366716 0.0205 0.0005 
1679 1 0.00743157 0.0401439 0.0222631 0.00075 
626 1 0.0076488 0.0419672 0.02075 0.00075 
471 1 0.00816108 0.0368198 0.0217111 0.00125 
2018 1 0.00973524 0.0402327 0.0224232 0.0005 
1353 1 0.0102387 0.0389545 0.0205 0.0005 
1419 1 0.0131001 0.0369821 0.020751 0.00075 
641 1 0.0115356 0.0424941 0.0210003 0.001 
1019 1 0.0137966 0.0382693 0.0205 0.0005 
669 1 0.00923844 0.0409698 0.0209999 0.001 
802 1 0.0134692 0.0422932 0.0207615 0.00075 
1043 1 0.0146227 0.0408404 0.0209999 0.001 
1107 1 0.0112023 0.0365167 0.02075 0.00075 
901 1 0.0115035 0.0390017 0.02075 0.00075 
1149 1 0.0141238 0.0357309 0.02075 0.00075 
1482 1 0.012888 0.0407768 0.02075 0.00075 
1265 1 0.0145496 0.039428 0.0205 0.0005 
1705 1 0.0148514 0.0384434 0.0205 0.0005 
1716 1 0.0155814 0.0420031 0.0205 0.0005 
912 1 0.00828352 0.038957 0.0210005 0.001 
1346 1 0.0129844 0.0392753 0.0207501 0.00075 
1743 1 0.0159644 0.039333 0.0209999 0.001 
1661 1 0.0139255 0.0416779 0.0220306 0.0005 
1131 1 0.0146812 0.0424518 0.0205 0.0005 
1181 1 0.014577 0.0372445 0.02075 0.00075 
1802 1 0.015475 0.0378843 0.021393 0.0005 
2083 1 0.014539 0.0394234 0.0215108 0.0005 
2003 1 0.0134117 0.0384127 0.0219037 0.00075 
2194 1 0.0145851 0.0383508 0.0214594 0.0005 
2275 1 0.0132368 0.0362949 0.0220871 0.00075 
2389 1 0.0114602 0.0375973 0.0215698 0.0005 
856 1 0.0162268 0.0376797 0.0205 0.0005 
1746 1 0.0161375 0.0417228 0.0219622 0.001 
959 1 0.019807 0.035529 0.0205 0.0005 
1544 1 0.0161312 0.0362517 0.0215304 0.00125 
986 1 0.0181777 0.0364259 0.02075 0.00075 
1145 1 0.0174658 0.0377461 0.0207499 0.00075 
1120 1 0.0203023 0.0365592 0.0210058 0.00075 
909 1 0.0234667 0.0363515 0.0205 0.0005 
268 1 0.0174534 0.0389715 0.0205 0.0005 
1278 1 0.0197149 0.0402883 0.0205 0.0005 
1033 1 0.0186878 0.0399504 0.0220104 0.001 
1307 1 0.0205123 0.0376975 0.0205 0.0005 
1018 1 0.0184256 0.0401283 0.0205 0.0005 
973 1 0.0199529 0.0412596 0.0205 0.0005 
1148 1 0.0174194 0.0395247 0.0213323 0.0005 
990 1 0.0220472 0.0364262 0.0209999 0.001 
1003 1 0.0201117 0.0388234 0.0208731 0.00075 
374 1 0.0232466 0.0392451 0.02075 0.00075 
394 1 0.0173154 0.0400816 0.0205 0.0005 
326 1 0.0235 0.0404432 0.0205 0.0005 
650 1 0.0215078 0.0404887 0.0214999 0.0015 
848 1 0.0215397 0.0383684 0.020749 0.00075 
993 1 0.0235001 0.041443 0.0204999 0.0005 
996 1 0.0183832 0.0385685 0.0205 0.0005 
892 1 0.0192448 0.0376017 0.02075 0.00075 
1261 1 0.0235 0.0373509 0.0205 0.0005 
1117 1 0.0205998 0.0420552 0.0205 0.0005 
1268 1 0.0227563 0.0380195 0.0205 0.0005 
1422 1 0.017872 0.0414708 0.0209997 0.001 
1663 1 0.0179915 0.0386693 0.0214145 0.0005 
1559 1 0.0190337 0.0393347 0.0205 0.0005 
1709 1 0.0165804 0.0420603 0.0205 0.0005 
1051 1 0.0191664 0.0382802 0.0222189 0.00075 
1506 1 0.016467 0.0379958 0.0214592 0.0005 
1747 1 0.0166227 0.0386572 0.0222158 0.0005 
1882 1 0.0164199 0.0407 0.0205 0.0005 
1549 1 0.0233974 0.0357869 0.0213224 0.0005 
1023 1 0.0196013 0.0422238 0.0205 0.0005 
876 1 0.0227497 0.0381079 0.0223193 0.00125 
981 1 0.023299 0.0415368 0.021475 0.0005 
1011 1 0.023496 0.0402628 0.0214835 0.0005 
1819 1 0.0234999 0.040921 0.0222373 0.0005 
811 1 0.0207708 0.0380892 0.0220055 0.00075 
1101 1 0.0195176 0.0416269 0.0216126 0.00075 
1803 1 0.0174643 0.0377226 0.0222497 0.00075 
1877 1 0.0172649 0.0404486 0.0219146 0.0005 
1140 1 0.0234992 0.0396896 0.0223046 0.0005 
1933 1 0.0232405 0.0425273 0.0222459 0.00075 
2267 1 0.0175816 0.0418309 0.0224281 0.0005 
451 1 0.000750194 0.0425857 0.0207499 0.00075 
615 1 0.00581457 0.0428854 0.0205 0.0005 
1537 1 0.00225317 0.0428497 0.0216343 0.00075 
1179 1 0.00713257 0.0439877 0.0215999 0.0015 
1186 1 0.00275756 0.0429985 0.0205004 0.0005 
682 1 0.00611782 0.0453158 0.0205 0.0005 
1301 1 0.00496931 0.0449018 0.0207706 0.00075 
1497 1 0.000771523 0.0436055 0.0218806 0.00075 
519 1 0.000501507 0.0438066 0.0205001 0.0005 
247 1 0.00171923 0.043937 0.0207498 0.00075 
309 1 0.00389591 0.0442969 0.0205 0.0005 
554 1 0.000529792 0.0448402 0.0205 0.0005 
1215 1 0.0023603 0.0449902 0.0205 0.0005 
570 1 0.00294305 0.0439815 0.0205002 0.0005 
668 1 0.000500569 0.0473369 0.0205 0.0005 
386 1 0.000984232 0.046461 0.0205023 0.0005 
433 1 0.00199299 0.0460122 0.0205008 0.0005 
584 1 0.00554666 0.0486458 0.02075 0.00075 
987 1 0.0040986 0.0491594 0.0205 0.0005 
1387 1 0.00716932 0.0496489 0.0210037 0.001 
236 1 0.00200806 0.0486837 0.0219992 0.002 
1432 1 0.00331522 0.0451837 0.0207962 0.0005 
1357 1 0.00596262 0.046304 0.0205 0.0005 
1351 1 0.00279568 0.0458143 0.0214457 0.0005 
1378 1 0.00298924 0.046125 0.0205 0.0005 
1909 1 0.00659539 0.0470795 0.0205 0.0005 
1635 1 0.00318844 0.0441588 0.0217134 0.00075 
1822 1 0.00731058 0.0466119 0.0210202 0.0005 
1985 1 0.00724544 0.0479107 0.0211898 0.00075 
1787 1 0.00608977 0.0489439 0.0218427 0.0005 
545 1 0.00120248 0.0455974 0.0217139 0.001 
1901 1 0.00442809 0.0485838 0.0213546 0.0005 
2185 1 0.00355756 0.0469529 0.0205 0.0005 
1664 1 0.00509261 0.049258 0.0218079 0.0005 
1443 1 0.0076338 0.0457387 0.0224273 0.0005 
1799 1 0.00332902 0.0453262 0.0221541 0.0005 
1895 1 0.00236523 0.0448733 0.0223252 0.0005 
1681 1 0.00463484 0.0439233 0.0222704 0.0005 
2219 1 0.0079174 0.046515 0.0218584 0.0005 
1645 1 0.00956234 0.0426911 0.0207648 0.00075 
1741 1 0.0124678 0.0427719 0.0223569 0.0005 
1930 1 0.00822007 0.0475421 0.0204998 0.0005 
2151 1 0.00863588 0.0496487 0.0213186 0.0005 
1644 1 0.00903905 0.0439638 0.0205 0.0005 
1622 1 0.0139592 0.0432361 0.0223979 0.001 
1487 1 0.0127235 0.0432625 0.0205003 0.0005 
514 1 0.0118122 0.0439988 0.0205002 0.0005 