ITEM: TIMESTEP
740000
ITEM: NUMBER OF ATOMS
3386
ITEM: BOX BOUNDS mm mm mm
-2.4e-06 0.0240024
-7.8e-06 0.0780078
-3e-06 0.030003
ITEM: ATOMS id type x y z radius 
1 1 0.00336807 0.00219662 0.0214999 0.0015 
2 1 0.00049994 0.00149969 0.0204999 0.0005 
3 1 0.00549842 0.00409295 0.0207499 0.00075 
4 1 0.00473921 0.000500235 0.0204999 0.0005 
5 1 0.00437485 0.0036058 0.0204999 0.0005 
6 1 0.00273931 0.000499977 0.0205 0.0005 
7 1 0.00465989 0.00594546 0.0205 0.0005 
8 1 0.000499865 0.000499839 0.0205 0.0005 
9 1 0.000999956 0.00282242 0.0209999 0.001 
10 1 0.00703633 0.00539699 0.0205 0.0005 
11 1 0.00373926 0.00050059 0.0205 0.0005 
12 1 0.0005007 0.00536505 0.0205 0.0005 
13 1 0.00631719 0.00319091 0.021426 0.0005 
14 1 0.00494451 0.0014791 0.0205 0.0005 
15 1 0.00113895 0.00622068 0.0205 0.0005 
16 1 0.00595305 0.00147664 0.0204999 0.0005 
17 1 0.000499976 0.00414521 0.0204999 0.0005 
18 1 0.00545173 0.00259386 0.0207499 0.00075 
19 1 0.0061024 0.000499963 0.0216592 0.0005 
20 1 0.00573913 0.000499906 0.0205 0.0005 
21 1 0.000728746 0.000499913 0.0214734 0.0005 
22 1 0.00691165 0.00224956 0.0207499 0.00075 
23 1 0.00161948 0.000995849 0.0207499 0.00075 
24 1 0.00693559 0.000749854 0.0207616 0.00075 
25 1 0.00324227 0.00392411 0.0205 0.0005 
27 1 0.00260016 0.00490931 0.0205 0.0005 
28 1 0.00223688 0.00350903 0.0205 0.0005 
29 1 0.00178396 0.000750031 0.0222207 0.00075 
31 1 0.00050022 0.00147298 0.0214999 0.0005 
32 1 0.000499949 0.0062719 0.0212674 0.0005 
33 1 0.00175203 0.00438222 0.0212518 0.00075 
34 1 0.00656465 0.00347599 0.0205 0.0005 
36 1 0.00529976 0.000955423 0.0212742 0.0005 
37 1 0.00309075 0.00452723 0.0212831 0.0005 
38 1 0.00442518 0.000499836 0.0214491 0.0005 
40 1 0.000500032 0.000500791 0.0224469 0.0005 
41 1 0.00754913 0.00329525 0.0204999 0.0005 
43 1 0.0072133 0.00423708 0.0204999 0.0005 
1724 1 0.0058222 0.00555742 0.0207499 0.00075 
1770 1 0.00167671 0.0053777 0.0204998 0.0005 
1665 1 0.0011289 0.00549689 0.0213278 0.0005 
1715 1 0.00513771 0.000501366 0.0221505 0.0005 
1926 1 0.00418395 0.00481549 0.0207499 0.00075 
1662 1 0.00674045 0.00458527 0.02188 0.001 
1735 1 0.00603233 0.00161411 0.0214872 0.0005 
1762 1 0.00698627 0.00121197 0.0221877 0.00075 
2008 1 0.00188885 0.00342684 0.0220461 0.0005 
2110 1 0.00519759 0.00159339 0.0220374 0.0005 
2030 1 0.000499908 0.00214491 0.0222411 0.0005 
2181 1 0.00514271 0.00632192 0.0214682 0.0005 
1610 1 0.00735458 0.00327455 0.0214806 0.0005 
1881 1 0.00774077 0.00217392 0.0216823 0.0005 
1977 1 0.00399256 0.000499954 0.022355 0.0005 
1700 1 0.0077352 0.00631901 0.0219446 0.001 
139 1 0.00733288 0.00635198 0.0204999 0.0005 
2188 1 0.0054526 0.00297375 0.0219408 0.0005 
102 1 0.00484922 0.0069281 0.0205 0.0005 
2207 1 0.000499914 0.00471969 0.0213183 0.0005 
1956 1 0.0062404 0.00599892 0.021842 0.0005 
1682 1 0.00295138 0.0067469 0.0217499 0.00175 
1812 1 0.000750018 0.00397635 0.0222915 0.00075 
2077 1 0.00653886 0.0023533 0.0219385 0.0005 
2330 1 0.00148397 0.00196002 0.0221277 0.0005 
42 1 0.00795622 0.00142208 0.0204999 0.0005 
2269 1 0.00264513 0.00436807 0.0224567 0.00075 
35 1 0.000499982 0.00702772 0.0219223 0.0005 
2292 1 0.00869735 0.00103177 0.0218567 0.001 
44 1 0.00834794 0.00632245 0.0205 0.0005 
1633 1 0.00840151 0.00381813 0.0205 0.0005 
1806 1 0.00814033 0.00497197 0.0209035 0.00075 
99 1 0.00945711 0.00521964 0.0213219 0.0005 
45 1 0.0091002 0.00566348 0.0205 0.0005 
46 1 0.0091921 0.00443044 0.0205 0.0005 
47 1 0.0115719 0.00425251 0.0204999 0.0005 
48 1 0.0101265 0.00279332 0.0205 0.0005 
49 1 0.0138205 0.00233377 0.02075 0.00075 
50 1 0.0101033 0.00178971 0.0205 0.0005 
51 1 0.0103424 0.000499945 0.0204999 0.0005 
52 1 0.0125878 0.000499996 0.0205 0.0005 
53 1 0.010965 0.00128235 0.0205 0.0005 
54 1 0.00834247 0.000499868 0.0204999 0.0005 
55 1 0.0109875 0.00512263 0.0204999 0.0005 
56 1 0.0127388 0.00387793 0.0205 0.0005 
57 1 0.0084976 0.00252046 0.0207498 0.00075 
58 1 0.0110396 0.00624563 0.0205 0.0005 
59 1 0.0100965 0.00557675 0.0205 0.0005 
60 1 0.0126502 0.00560779 0.0214999 0.0015 
61 1 0.0104296 0.0010682 0.0216098 0.00075 
62 1 0.00915101 0.00148453 0.0205 0.0005 
63 1 0.00932161 0.00342651 0.0205 0.0005 
64 1 0.0143876 0.00559072 0.0205 0.0005 
66 1 0.0149428 0.00411012 0.0212499 0.00125 
67 1 0.00934241 0.000500017 0.0205 0.0005 
68 1 0.0117091 0.00267742 0.0212499 0.00125 
69 1 0.0137868 0.000749941 0.0207499 0.00075 
70 1 0.0103618 0.00407099 0.0207549 0.00075 
71 1 0.0115878 0.000499963 0.0205 0.0005 
72 1 0.0127565 0.00148617 0.0205 0.0005 
75 1 0.0157711 0.00149991 0.0214999 0.0015 
2063 1 0.0126084 0.000500078 0.0214997 0.0005 
2015 1 0.0104555 0.00516871 0.0213454 0.0005 
143 1 0.0149148 0.00644052 0.0204999 0.0005 
1828 1 0.0133755 0.00154628 0.0222528 0.001 
1644 1 0.0105284 0.00574085 0.0224543 0.00075 
1941 1 0.0117135 0.000933253 0.0213924 0.0005 
2441 1 0.0100216 0.00223607 0.0213911 0.0005 
1608 1 0.01594 0.00577059 0.02075 0.00075 
2355 1 0.00911286 0.00579175 0.0222167 0.0005 
2090 1 0.0110393 0.00444622 0.021736 0.0005 
2263 1 0.0113206 0.00703134 0.0219529 0.0005 
2046 1 0.0148333 0.00611275 0.0217033 0.00075 
2268 1 0.0117274 0.00404547 0.022341 0.0005 
2039 1 0.0114529 0.00123735 0.0223086 0.0005 
2130 1 0.0133397 0.00341533 0.0211518 0.0005 
2318 1 0.0159286 0.00326648 0.0224242 0.0005 
2598 1 0.0105888 0.00200956 0.0224166 0.0005 
2848 1 0.0121386 0.000503236 0.0223825 0.0005 
1872 1 0.0142987 0.00271741 0.0220912 0.0005 
1623 1 0.0160126 0.00532467 0.0219155 0.0005 
74 1 0.0164294 0.00464803 0.0204998 0.0005 
76 1 0.0220891 0.0007499 0.02075 0.00075 
77 1 0.0235 0.00526316 0.0204999 0.0005 
78 1 0.0203881 0.00107602 0.0209999 0.001 
79 1 0.0232501 0.00169941 0.0207499 0.00075 
81 1 0.0206762 0.00278515 0.0207499 0.00075 
82 1 0.0205089 0.00490801 0.0204999 0.0005 
83 1 0.0187319 0.00162384 0.0207499 0.00075 
84 1 0.021581 0.0018918 0.0205 0.0005 
85 1 0.0171903 0.000506421 0.0205 0.0005 
86 1 0.0234997 0.000500248 0.0205 0.0005 
87 1 0.0209026 0.00398878 0.0205 0.0005 
88 1 0.0182448 0.000500016 0.0205 0.0005 
89 1 0.0216152 0.00217982 0.0217507 0.00075 
90 1 0.0211154 0.005972 0.0207499 0.00075 
91 1 0.0199016 0.00580872 0.0204999 0.0005 
92 1 0.0223019 0.00418917 0.0205 0.0005 
93 1 0.0219025 0.00283871 0.0205 0.0005 
95 1 0.0235001 0.00426336 0.0204998 0.0005 
97 1 0.0171619 0.00585415 0.0205 0.0005 
182 1 0.0232501 0.00646195 0.0207498 0.00075 
1643 1 0.0210926 0.00447963 0.0213582 0.0005 
1663 1 0.0215018 0.00478935 0.0204999 0.0005 
1901 1 0.0202631 0.00623262 0.0216264 0.0005 
1650 1 0.0224235 0.00518509 0.021615 0.001 
2044 1 0.0169349 0.00278469 0.0205 0.0005 
1612 1 0.022962 0.00326355 0.0214797 0.001 
187 1 0.0220601 0.00675134 0.0205 0.0005 
2221 1 0.0234995 0.000500669 0.0215055 0.0005 
1629 1 0.0185051 0.00421196 0.0222498 0.00225 
1979 1 0.021614 0.00649 0.0217724 0.0005 
2364 1 0.01902 0.000499916 0.0212148 0.0005 
2071 1 0.0178851 0.000749959 0.0216749 0.00075 
2447 1 0.0215284 0.00359751 0.0211747 0.0005 
2462 1 0.0209558 0.0053922 0.0218458 0.0005 
2334 1 0.0191683 0.00128626 0.0222369 0.00075 
94 1 0.0184882 0.00661061 0.0205 0.0005 
96 1 0.0207852 0.00699725 0.0220084 0.0005 
80 1 0.0198713 0.00703305 0.0207499 0.00075 
2613 1 0.0203844 0.00222496 0.0219641 0.0005 
2682 1 0.0235 0.00617762 0.0219411 0.0005 
2222 1 0.0216907 0.000749863 0.0221969 0.00075 
2516 1 0.0226477 0.00145934 0.0218185 0.0005 
2332 1 0.0201484 0.000499993 0.022364 0.0005 
2839 1 0.0235 0.00195618 0.021981 0.0005 
26 1 0.000749897 0.0073819 0.0207499 0.00075 
100 1 0.0062323 0.00724011 0.0209998 0.001 
101 1 0.00136617 0.00844013 0.0204999 0.0005 
103 1 0.001842 0.0100655 0.0205 0.0005 
104 1 0.00245879 0.00899324 0.0207499 0.00075 
105 1 0.00711532 0.0118135 0.0204999 0.0005 
106 1 0.00358345 0.00850782 0.0205 0.0005 
107 1 0.002724 0.0115478 0.0205 0.0005 
108 1 0.00459444 0.0104751 0.0207499 0.00075 
109 1 0.00049996 0.0107072 0.0205 0.0005 
110 1 0.00516399 0.00931115 0.0205 0.0005 
111 1 0.00176658 0.0110643 0.0204999 0.0005 
112 1 0.00391922 0.011815 0.0207499 0.00075 
113 1 0.0059576 0.00999549 0.0211813 0.00075 
114 1 0.00513272 0.0116619 0.0210074 0.0005 
116 1 0.00295786 0.0130626 0.0205 0.0005 
118 1 0.000500608 0.0127064 0.0205 0.0005 
119 1 0.00388767 0.0134306 0.0205 0.0005 
122 1 0.00610416 0.0119229 0.0204999 0.0005 
124 1 0.00569608 0.0110101 0.0204999 0.0005 
125 1 0.00493423 0.0125004 0.0205 0.0005 
126 1 0.00375529 0.0129046 0.0213401 0.0005 
128 1 0.00714041 0.013132 0.0205 0.0005 
129 1 0.00600708 0.0129181 0.0204999 0.0005 
130 1 0.00174892 0.0122889 0.0207499 0.00075 
131 1 0.000528356 0.0117068 0.0205 0.0005 
132 1 0.00589015 0.00862365 0.0204999 0.0005 
133 1 0.00416419 0.00932844 0.0204999 0.0005 
134 1 0.000749928 0.00949844 0.0207499 0.00075 
136 1 0.00166763 0.00945969 0.0215977 0.0005 
137 1 0.00290385 0.0123716 0.0212207 0.0005 
138 1 0.000499992 0.00844017 0.0213664 0.0005 
140 1 0.000499993 0.0133114 0.0212961 0.0005 
141 1 0.00788873 0.00774624 0.0207499 0.00075 
1822 1 0.0030694 0.0103728 0.0207499 0.00075 
154 1 0.00726194 0.0105976 0.0207499 0.00075 
1865 1 0.000499987 0.0112358 0.0213816 0.0005 
1780 1 0.00475848 0.00815552 0.0207499 0.00075 
222 1 0.00642217 0.0138278 0.0205 0.0005 
1934 1 0.00331854 0.0117048 0.0218405 0.0005 
120 1 0.00507855 0.0137166 0.0207499 0.00075 
1893 1 0.00366443 0.00914001 0.02163 0.00075 
1655 1 0.00691515 0.00884099 0.0211814 0.00075 
1805 1 0.00219305 0.0111892 0.0216682 0.00075 
1890 1 0.00122133 0.0105734 0.0211794 0.0005 
1970 1 0.00511272 0.0105948 0.0218811 0.0005 
2119 1 0.00153519 0.00847502 0.0214848 0.0005 
1739 1 0.000999908 0.0122842 0.0223313 0.001 
2433 1 0.00290032 0.0132 0.0217806 0.0005 
123 1 0.000499959 0.0139165 0.0205 0.0005 
2342 1 0.00248564 0.0123144 0.0221272 0.0005 
2047 1 0.00382164 0.0105766 0.0220315 0.00075 
1888 1 0.00761182 0.00984175 0.0220549 0.00075 
2665 1 0.00249751 0.00998306 0.0217908 0.0005 
121 1 0.00191082 0.0140133 0.0209999 0.001 
2524 1 0.000740022 0.0140404 0.0219372 0.0005 
65 1 0.0141915 0.00713106 0.0205 0.0005 
163 1 0.00833691 0.0117262 0.0207498 0.00075 
183 1 0.0153201 0.00735722 0.0205 0.0005 
148 1 0.00835983 0.0132461 0.02075 0.00075 
142 1 0.0140061 0.00811368 0.0204999 0.0005 
144 1 0.00990618 0.0104387 0.0204999 0.0005 
145 1 0.0126923 0.008113 0.0205 0.0005 
147 1 0.0131987 0.00725074 0.0205 0.0005 
149 1 0.00972046 0.00711788 0.0212499 0.00125 
150 1 0.0116259 0.00746584 0.02075 0.00075 
151 1 0.0118043 0.00895651 0.0207499 0.00075 
152 1 0.0107112 0.00839755 0.0205 0.0005 
153 1 0.0111227 0.0102934 0.0207499 0.00075 
155 1 0.011589 0.011719 0.0207501 0.00075 
156 1 0.00950362 0.011354 0.0204999 0.0005 
158 1 0.00870217 0.0105573 0.0204999 0.0005 
159 1 0.013232 0.00895486 0.0205 0.0005 
160 1 0.0103714 0.0118507 0.0205003 0.0005 
164 1 0.00960672 0.0133384 0.0205 0.0005 
165 1 0.00941559 0.0123548 0.0205 0.0005 
166 1 0.0108034 0.0129967 0.02075 0.00075 
167 1 0.00910026 0.00857215 0.0204999 0.0005 
168 1 0.0123047 0.0130372 0.02075 0.00075 
169 1 0.0122815 0.0107088 0.0205 0.0005 
170 1 0.0138162 0.0106586 0.0209999 0.001 
171 1 0.00822561 0.0094293 0.0207499 0.00075 
172 1 0.0116967 0.0108971 0.0220005 0.00075 
173 1 0.0128119 0.0116541 0.0204999 0.0005 
174 1 0.0133901 0.0124699 0.0204999 0.0005 
175 1 0.00930634 0.0107125 0.0212813 0.0005 
176 1 0.00892912 0.0124771 0.0215546 0.0005 
177 1 0.00831664 0.0106679 0.0214171 0.0005 
179 1 0.0126942 0.0097979 0.0204999 0.0005 
180 1 0.0127493 0.0119703 0.0217076 0.00075 
184 1 0.0149412 0.00969886 0.0212511 0.0005 
1640 1 0.0111987 0.00827526 0.0219411 0.00075 
1732 1 0.00987323 0.00934569 0.0215264 0.001 
181 1 0.014174 0.00929044 0.0205 0.0005 
191 1 0.0151693 0.00857681 0.0207498 0.00075 
1614 1 0.0101576 0.0117298 0.0219813 0.001 
192 1 0.0155624 0.0110837 0.0205 0.0005 
1815 1 0.0153403 0.0106101 0.0213522 0.0005 
325 1 0.0133786 0.013626 0.0204999 0.0005 
1676 1 0.0128915 0.0105756 0.022178 0.0005 
1592 1 0.0152988 0.0130672 0.0219999 0.002 
2095 1 0.0122301 0.009955 0.0213717 0.0005 
1831 1 0.00863068 0.00847301 0.0214453 0.0005 
1916 1 0.0156326 0.00917262 0.0217462 0.0005 
1929 1 0.0147613 0.0103228 0.0221152 0.0005 
1775 1 0.011541 0.0135655 0.0215866 0.0005 
2223 1 0.0128052 0.0132066 0.0218829 0.0005 
2037 1 0.011342 0.00956305 0.0217404 0.0005 
1920 1 0.00970781 0.013928 0.0221467 0.00125 
1793 1 0.0135821 0.0112817 0.0223441 0.0005 
162 1 0.0102736 0.0141007 0.0204999 0.0005 
260 1 0.013071 0.0140202 0.0213658 0.0005 
2298 1 0.010813 0.0101122 0.0224092 0.0005 
2204 1 0.00895724 0.0105136 0.0224792 0.00075 
201 1 0.0160836 0.00977799 0.02075 0.00075 
1740 1 0.016301 0.0108817 0.0212949 0.0005 
178 1 0.0171178 0.0122364 0.0204999 0.0005 
185 1 0.0235 0.00766085 0.0204999 0.0005 
186 1 0.0170429 0.00758257 0.0214999 0.0015 
188 1 0.0226468 0.0071781 0.0219214 0.00075 
189 1 0.0235 0.00966068 0.0205 0.0005 
190 1 0.021332 0.00796365 0.021 0.001 
193 1 0.0181166 0.012945 0.0207499 0.00075 
194 1 0.0187758 0.00759591 0.0205 0.0005 
196 1 0.020152 0.0087928 0.0214128 0.0005 
197 1 0.0187985 0.0092906 0.021 0.001 
198 1 0.0164895 0.0114584 0.0205 0.0005 
199 1 0.0173845 0.0092804 0.0204999 0.0005 
200 1 0.0230001 0.010849 0.0212667 0.001 
202 1 0.0204462 0.00907592 0.0205 0.0005 
203 1 0.0173956 0.0105049 0.0207498 0.00075 
204 1 0.0179042 0.011619 0.0204999 0.0005 
205 1 0.0203003 0.0129286 0.0204999 0.0005 
206 1 0.0213356 0.011006 0.0207499 0.00075 
207 1 0.0235 0.0120372 0.0204999 0.0005 
208 1 0.0235 0.00866076 0.0205 0.0005 
209 1 0.0198286 0.0082643 0.0205 0.0005 
210 1 0.0221676 0.0122987 0.0207499 0.00075 
211 1 0.0199769 0.010072 0.0204997 0.0005 
212 1 0.0225108 0.0137589 0.0207499 0.00075 
213 1 0.0209498 0.0121683 0.0205 0.0005 
214 1 0.0235001 0.0130371 0.0204999 0.0005 
215 1 0.0213966 0.0132503 0.0205 0.0005 
216 1 0.0218821 0.00960592 0.0207499 0.00075 
217 1 0.0172067 0.0116199 0.0212822 0.0005 
218 1 0.0212057 0.0123587 0.0218993 0.00075 
219 1 0.0234224 0.0132707 0.0214691 0.0005 
221 1 0.0235001 0.0122738 0.0214713 0.0005 
324 1 0.0193245 0.0131472 0.0204999 0.0005 
1626 1 0.0194845 0.0115743 0.0212499 0.00125 
1691 1 0.023063 0.00912736 0.0215741 0.00075 
1684 1 0.0217437 0.010388 0.0219439 0.0005 
1915 1 0.0235 0.00796254 0.0214533 0.0005 
220 1 0.020234 0.0131395 0.021475 0.0005 
2005 1 0.0206512 0.00993217 0.0215426 0.00075 
1851 1 0.0193823 0.0073574 0.0223984 0.001 
1835 1 0.0179109 0.0121807 0.0217173 0.0005 
2211 1 0.0184176 0.0134499 0.0218531 0.0005 
1968 1 0.0192723 0.0136381 0.0213694 0.0005 
328 1 0.0190689 0.0141317 0.0205 0.0005 
2149 1 0.0195278 0.0100348 0.0220809 0.0005 
326 1 0.0206175 0.013877 0.0204999 0.0005 
330 1 0.0171534 0.0138187 0.0205 0.0005 
329 1 0.0176522 0.0139065 0.0213997 0.0005 
2289 1 0.021015 0.011101 0.0219543 0.0005 
2213 1 0.0226251 0.0122132 0.0223618 0.00075 
1960 1 0.0195074 0.0131417 0.0224921 0.00075 
2507 1 0.0230429 0.0136162 0.0223273 0.0005 
2452 1 0.0218996 0.0112047 0.0224994 0.0005 
117 1 0.00361792 0.0143935 0.0205 0.0005 
223 1 0.0045364 0.014815 0.0205 0.0005 
224 1 0.0028686 0.0150557 0.0205 0.0005 
225 1 0.00226847 0.0160979 0.0205 0.0005 
226 1 0.00608287 0.0153722 0.0212499 0.00125 
227 1 0.00156715 0.0153851 0.0205 0.0005 
228 1 0.0005341 0.0149159 0.0205 0.0005 
229 1 0.000499983 0.0159153 0.0205 0.0005 
230 1 0.00451783 0.0171311 0.0204999 0.0005 
231 1 0.00283056 0.0172756 0.0204999 0.0005 
232 1 0.00124986 0.0173073 0.0212499 0.00125 
233 1 0.00653046 0.0169527 0.0205 0.0005 
234 1 0.00532323 0.0180537 0.02075 0.00075 
235 1 0.000500272 0.0187067 0.0205 0.0005 
236 1 0.00348489 0.0162405 0.0207499 0.00075 
237 1 0.00549286 0.0168391 0.0205 0.0005 
238 1 0.00434305 0.0155417 0.0213309 0.0005 
239 1 0.00470602 0.016149 0.0204999 0.0005 
240 1 0.00253358 0.0182303 0.0204999 0.0005 
241 1 0.000968962 0.0155201 0.0212898 0.0005 
242 1 0.000499846 0.0197472 0.0216073 0.0005 
243 1 0.00340605 0.0187189 0.0205 0.0005 
244 1 0.00437467 0.0189672 0.0204999 0.0005 
245 1 0.00598114 0.017153 0.0213142 0.0005 
246 1 0.00323504 0.0197041 0.0204999 0.0005 
247 1 0.00184155 0.0194635 0.0209999 0.001 
248 1 0.00468504 0.0191515 0.0214324 0.0005 
249 1 0.00711451 0.0199507 0.0204999 0.0005 
250 1 0.00376013 0.0177837 0.0205 0.0005 
256 1 0.007233 0.0183741 0.02125 0.00125 
255 1 0.00746681 0.0164275 0.0222353 0.00075 
392 1 0.00566749 0.0195136 0.0207499 0.00075 
443 1 0.00434506 0.0202213 0.02075 0.00075 
1846 1 0.00345505 0.019236 0.0216378 0.00075 
393 1 0.00302316 0.0206904 0.0205 0.0005 
1615 1 0.00492404 0.016694 0.0213095 0.0005 
259 1 0.00766622 0.0164868 0.0207499 0.00075 
395 1 0.000506106 0.0200032 0.0205 0.0005 
1616 1 0.00395511 0.0142473 0.0219821 0.001 
1802 1 0.00528021 0.0203793 0.0215642 0.0005 
411 1 0.00049994 0.0210159 0.0204999 0.0005 
390 1 0.00656779 0.0204404 0.0215117 0.00075 
444 1 0.00351106 0.02048 0.0217461 0.0005 
1636 1 0.00234085 0.0207134 0.0221182 0.00075 
432 1 0.00588838 0.0207182 0.0205 0.0005 
261 1 0.00765954 0.0152538 0.0204999 0.0005 
1804 1 0.00316493 0.0177649 0.0216003 0.00075 
2055 1 0.00437939 0.0175505 0.0213969 0.0005 
1908 1 0.00397419 0.016613 0.022118 0.00075 
391 1 0.0071085 0.0209507 0.0205 0.0005 
1784 1 0.00550939 0.016783 0.0221153 0.0005 
146 1 0.00729018 0.0143243 0.0205 0.0005 
2106 1 0.000499988 0.0150084 0.0220097 0.0005 
2329 1 0.000918878 0.0206048 0.0213093 0.0005 
1766 1 0.0074631 0.0149621 0.0222442 0.0005 
2215 1 0.00225522 0.0184877 0.0220613 0.0005 
2087 1 0.00568872 0.0179223 0.0219381 0.0005 
1971 1 0.00249517 0.0156125 0.0220491 0.001 
302 1 0.00782201 0.0154717 0.0214623 0.0005 
2561 1 0.0043883 0.018366 0.0219754 0.0005 
2113 1 0.00643965 0.0171393 0.022203 0.0005 
1697 1 0.00777445 0.0144678 0.021363 0.0005 
396 1 0.0018746 0.0211952 0.0207499 0.00075 
2523 1 0.00484427 0.0175111 0.0222812 0.0005 
414 1 0.000499939 0.020879 0.0221748 0.0005 
394 1 0.00503232 0.021235 0.0205 0.0005 
2971 1 0.00245802 0.0194177 0.0223695 0.0005 
1917 1 0.00399902 0.0212596 0.0213537 0.0005 
252 1 0.0121322 0.0142497 0.0205 0.0005 
161 1 0.00926916 0.0143254 0.0204999 0.0005 
1855 1 0.0112035 0.014175 0.0208692 0.0005 
254 1 0.0129954 0.0147553 0.0205 0.0005 
257 1 0.0121437 0.0148215 0.0216115 0.00075 
258 1 0.0115273 0.015046 0.0205 0.0005 
262 1 0.013978 0.0145695 0.0205 0.0005 
263 1 0.0123902 0.0155514 0.0205 0.0005 
264 1 0.0101685 0.0184368 0.0205 0.0005 
265 1 0.00941646 0.0190989 0.0204999 0.0005 
267 1 0.0138505 0.0161576 0.02125 0.00125 
268 1 0.011469 0.0181619 0.0205 0.0005 
269 1 0.00995866 0.0150497 0.0205 0.0005 
270 1 0.012284 0.0192179 0.0207499 0.00075 
271 1 0.0123219 0.0165605 0.0204999 0.0005 
272 1 0.0153523 0.0190184 0.0204999 0.0005 
273 1 0.0104753 0.0159057 0.0204999 0.0005 
274 1 0.0109745 0.019031 0.0205 0.0005 
275 1 0.0102227 0.0196902 0.0204999 0.0005 
276 1 0.0134643 0.0205425 0.0211319 0.0005 
277 1 0.0113177 0.0199702 0.0204999 0.0005 
278 1 0.0122872 0.0207184 0.0207499 0.00075 
280 1 0.0115245 0.0171636 0.0204998 0.0005 
281 1 0.0126216 0.0177481 0.02075 0.00075 
282 1 0.0133764 0.0197714 0.0205 0.0005 
283 1 0.0138463 0.0177387 0.0204999 0.0005 
284 1 0.0134167 0.0186797 0.0205 0.0005 
285 1 0.0142722 0.019327 0.0205 0.0005 
286 1 0.0145889 0.0183908 0.0206522 0.0005 
287 1 0.0132634 0.0189882 0.0218625 0.00075 
288 1 0.0121063 0.0160379 0.0213262 0.0005 
289 1 0.0152851 0.0200161 0.0204999 0.0005 
290 1 0.0147964 0.0174245 0.0205 0.0005 
291 1 0.00916393 0.0181314 0.0205 0.0005 
292 1 0.0104144 0.0174507 0.0204999 0.0005 
293 1 0.0148477 0.0204306 0.0212979 0.0005 
294 1 0.014209 0.0203249 0.0205 0.0005 
295 1 0.00847989 0.0174021 0.0204999 0.0005 
296 1 0.0157941 0.0174913 0.0204998 0.0005 
297 1 0.00884537 0.0155598 0.02075 0.00075 
298 1 0.0110545 0.0176353 0.0212455 0.0005 
300 1 0.0108106 0.0166926 0.0210177 0.0005 
301 1 0.0114656 0.0160441 0.0205 0.0005 
303 1 0.0124988 0.0199677 0.0217266 0.0005 
304 1 0.00983161 0.0164331 0.0210543 0.0005 
305 1 0.0137138 0.0178869 0.0214799 0.0005 
306 1 0.014968 0.0150393 0.0204998 0.0005 
307 1 0.00990999 0.0155003 0.0214056 0.0005 
308 1 0.0117764 0.0169739 0.0214487 0.0005 
309 1 0.0124727 0.0209381 0.0219664 0.0005 
310 1 0.0118251 0.0162555 0.0222608 0.0005 
311 1 0.00945347 0.0171744 0.0204999 0.0005 
312 1 0.00981273 0.0178242 0.0212059 0.0005 
314 1 0.0111337 0.0158713 0.0214878 0.0005 
315 1 0.0102813 0.0190845 0.0218708 0.001 
316 1 0.0153728 0.0165845 0.0204999 0.0005 
319 1 0.010743 0.0150266 0.02112 0.0005 
320 1 0.0157524 0.0156595 0.0204999 0.0005 
321 1 0.00895103 0.0187038 0.0212918 0.0005 
322 1 0.0140818 0.0197913 0.0213649 0.0005 
323 1 0.00884614 0.0167391 0.0211645 0.0005 
331 1 0.015947 0.0163584 0.0212868 0.0005 
1603 1 0.0082796 0.0144692 0.0205 0.0005 
1637 1 0.00884222 0.0177069 0.0214163 0.0005 
1721 1 0.0154603 0.0154989 0.0214427 0.0005 
461 1 0.00861146 0.0204597 0.0212499 0.00125 
318 1 0.0115794 0.0184608 0.0214517 0.0005 
313 1 0.0113466 0.0202837 0.021449 0.0005 
279 1 0.0149191 0.0210289 0.0204999 0.0005 
2191 1 0.0133849 0.0146745 0.0220537 0.0005 
465 1 0.0105011 0.0208828 0.0207499 0.00075 
1997 1 0.0134679 0.017391 0.022431 0.0005 
458 1 0.0102112 0.020629 0.021939 0.0005 
2002 1 0.00904679 0.0182961 0.0221999 0.0005 
1886 1 0.0110265 0.0202749 0.0223975 0.0005 
2180 1 0.0120339 0.0191367 0.0220317 0.0005 
2218 1 0.0150455 0.0206268 0.0222582 0.0005 
2526 1 0.0110207 0.0150838 0.0220937 0.0005 
2353 1 0.0123044 0.0177989 0.0222253 0.00075 
2041 1 0.00878031 0.0157031 0.0222417 0.00075 
459 1 0.0138039 0.0212392 0.0204999 0.0005 
332 1 0.0235 0.0142676 0.0214769 0.0005 
317 1 0.0162477 0.0194638 0.0205 0.0005 
2457 1 0.017391 0.0144179 0.0222183 0.0005 
1729 1 0.0217974 0.0163769 0.021878 0.0005 
327 1 0.0235001 0.0144807 0.0204999 0.0005 
333 1 0.0180722 0.0142134 0.0205 0.0005 
334 1 0.0216803 0.0146785 0.0205 0.0005 
336 1 0.022633 0.0149822 0.0205 0.0005 
337 1 0.0171042 0.0152443 0.0209999 0.001 
338 1 0.018512 0.015377 0.0204999 0.0005 
339 1 0.0194641 0.0150713 0.0204999 0.0005 
340 1 0.0187151 0.0172459 0.0212677 0.0005 
341 1 0.0180873 0.0162823 0.0205 0.0005 
342 1 0.0175537 0.0181532 0.0205 0.0005 
343 1 0.0223035 0.016192 0.02075 0.00075 
344 1 0.0180769 0.0173011 0.0204999 0.0005 
345 1 0.0193298 0.0162886 0.0207499 0.00075 
346 1 0.0235001 0.0174805 0.0205 0.0005 
347 1 0.022313 0.0177815 0.02075 0.00075 
348 1 0.021191 0.0156799 0.0205 0.0005 
349 1 0.0202926 0.0174151 0.0205 0.0005 
350 1 0.0185532 0.0181808 0.0205 0.0005 
351 1 0.0192974 0.0175129 0.0204999 0.0005 
352 1 0.0235001 0.0184804 0.0204999 0.0005 
353 1 0.0200948 0.0176547 0.0217107 0.00075 
354 1 0.0168995 0.0169642 0.02075 0.00075 
355 1 0.0209449 0.0184517 0.0207499 0.00075 
356 1 0.0212589 0.017158 0.0204999 0.0005 
357 1 0.0197206 0.0184188 0.0204999 0.0005 
358 1 0.0235 0.0154806 0.0205 0.0005 
359 1 0.0205953 0.0148767 0.0205 0.0005 
360 1 0.0190627 0.0182643 0.0213564 0.0005 
361 1 0.0203426 0.0198524 0.02075 0.00075 
362 1 0.0189231 0.0193483 0.0207498 0.00075 
363 1 0.0234999 0.0164805 0.0205 0.0005 
364 1 0.0225 0.0198945 0.0214999 0.0015 
366 1 0.0205519 0.0164493 0.0205 0.0005 
367 1 0.02325 0.0169522 0.021631 0.00075 
368 1 0.0179499 0.0187213 0.0212213 0.0005 
369 1 0.0235 0.0181632 0.0214483 0.0005 
370 1 0.0199385 0.0188488 0.021376 0.0005 
371 1 0.017729 0.0176741 0.02136 0.0005 
373 1 0.0180462 0.0202093 0.0212126 0.0005 
374 1 0.0174839 0.0197904 0.0204999 0.0005 
376 1 0.0165538 0.0181415 0.0204999 0.0005 
377 1 0.0231894 0.0154556 0.0217106 0.00075 
378 1 0.0206793 0.0207175 0.0215871 0.0005 
379 1 0.0170443 0.0189516 0.0208208 0.0005 
380 1 0.0210099 0.0167 0.0213532 0.0005 
381 1 0.0207903 0.018934 0.0218928 0.0005 
382 1 0.0234793 0.0182261 0.0224461 0.0005 
383 1 0.0203572 0.015657 0.0210782 0.0005 
385 1 0.017917 0.0166605 0.0214098 0.0005 
386 1 0.0198978 0.014336 0.0210206 0.0005 
388 1 0.0201231 0.0164051 0.0217088 0.0005 
1830 1 0.0215374 0.0179298 0.0220253 0.00075 
1972 1 0.0188698 0.0149813 0.0219017 0.001 
526 1 0.0190161 0.0208475 0.0207499 0.00075 
375 1 0.0165 0.021028 0.0212499 0.00125 
1906 1 0.0171022 0.0164166 0.0219357 0.0005 
2136 1 0.0235 0.014497 0.0224503 0.0005 
527 1 0.0210357 0.0208622 0.0204999 0.0005 
2036 1 0.0162021 0.0156251 0.0224502 0.00075 
1866 1 0.0212723 0.0145368 0.0224594 0.0015 
397 1 0.00503133 0.0250338 0.0205 0.0005 
398 1 0.00587246 0.024111 0.0207498 0.00075 
399 1 0.00460775 0.0225839 0.0209999 0.001 
400 1 0.00074993 0.0222148 0.0207499 0.00075 
401 1 0.00115388 0.0253421 0.0213213 0.0005 
402 1 0.00050529 0.024414 0.0205 0.0005 
403 1 0.000500021 0.0254141 0.0205 0.0005 
404 1 0.00770363 0.0217543 0.0205 0.0005 
405 1 0.00261583 0.024759 0.0205 0.0005 
406 1 0.00526299 0.0260385 0.0205 0.0005 
407 1 0.00336461 0.0237898 0.0207498 0.00075 
408 1 0.000499889 0.0234137 0.0204999 0.0005 
409 1 0.00667537 0.0253779 0.0207499 0.00075 
410 1 0.00359932 0.0215925 0.0204999 0.0005 
412 1 0.00170996 0.0237545 0.0213179 0.001 
413 1 0.0063009 0.0218712 0.0207504 0.00075 
415 1 0.00659379 0.0265998 0.0204999 0.0005 
416 1 0.00232456 0.0257632 0.0212004 0.00075 
417 1 0.00755422 0.0263214 0.0205 0.0005 
418 1 0.00429971 0.0257701 0.0205 0.0005 
419 1 0.000499934 0.024615 0.0215302 0.0005 
420 1 0.00676535 0.0275848 0.0204999 0.0005 
421 1 0.00465301 0.0239974 0.0205 0.0005 
422 1 0.000499989 0.0229638 0.0217189 0.0005 
423 1 0.00049996 0.0260975 0.0213622 0.0005 
424 1 0.00161619 0.0250082 0.0204999 0.0005 
426 1 0.0027138 0.0224384 0.0207499 0.00075 
427 1 0.00696522 0.0262854 0.0219085 0.00075 
428 1 0.00131511 0.0259936 0.0205 0.0005 
429 1 0.00405676 0.0248001 0.0204999 0.0005 
430 1 0.00331882 0.0254749 0.0205 0.0005 
431 1 0.00594124 0.0262888 0.0211908 0.0005 
433 1 0.00162914 0.0269431 0.0205 0.0005 
434 1 0.00356801 0.0269623 0.021363 0.0005 
435 1 0.00356172 0.0264449 0.0205 0.0005 
436 1 0.00614531 0.0230027 0.0217227 0.00075 
437 1 0.00049999 0.0270368 0.0217053 0.0005 
438 1 0.000500645 0.026604 0.0205 0.0005 
439 1 0.00136944 0.0262581 0.0222457 0.00075 
440 1 0.00452986 0.026684 0.0208344 0.0005 
442 1 0.00661364 0.0274023 0.0214712 0.0005 
445 1 0.00555574 0.0273931 0.0207499 0.00075 
446 1 0.00652549 0.023075 0.0204999 0.0005 
447 1 0.000499935 0.0278031 0.022383 0.0005 
450 1 0.00336718 0.0274258 0.0204999 0.0005 
453 1 0.00709454 0.0240229 0.0205 0.0005 
454 1 0.00435019 0.027609 0.0204999 0.0005 
455 1 0.00749216 0.0271385 0.021073 0.0005 
456 1 0.00300597 0.0213367 0.021263 0.0005 
594 1 0.00261191 0.0267578 0.0204999 0.0005 
629 1 0.00271426 0.0267571 0.0218506 0.0005 
1594 1 0.00767874 0.0242174 0.0221382 0.00125 
522 1 0.00746202 0.0227246 0.0205 0.0005 
463 1 0.00776858 0.0248259 0.0204999 0.0005 
1824 1 0.00537913 0.0213656 0.0214295 0.0005 
615 1 0.00263506 0.0274926 0.0211777 0.0005 
1857 1 0.00112631 0.0215 0.0217036 0.0005 
1939 1 0.00576735 0.0272115 0.0219684 0.0005 
605 1 0.00447516 0.0277426 0.0217362 0.00075 
606 1 0.00166217 0.0276962 0.0219356 0.00075 
579 1 0.00768903 0.0279678 0.0204999 0.0005 
2076 1 0.00176507 0.0250542 0.0220646 0.0005 
2088 1 0.00173861 0.0222674 0.0215128 0.0005 
2129 1 0.00279632 0.0220495 0.021935 0.0005 
589 1 0.00198246 0.0279652 0.0205 0.0005 
1819 1 0.00550872 0.0281032 0.0223395 0.0005 
451 1 0.000749904 0.0278031 0.0207499 0.00075 
1765 1 0.00308474 0.0281121 0.0221659 0.00075 
2604 1 0.00367519 0.0224653 0.0221687 0.0005 
2530 1 0.00303972 0.0231139 0.0217499 0.0005 
513 1 0.00790614 0.0256308 0.0211317 0.0005 
2112 1 0.00049998 0.0253615 0.0221955 0.0005 
448 1 0.00822681 0.0239368 0.0205 0.0005 
457 1 0.0148493 0.0214224 0.0216851 0.0005 
460 1 0.0140263 0.0227656 0.0217277 0.0005 
462 1 0.00986117 0.021661 0.0214897 0.0005 
464 1 0.00831031 0.0271843 0.0204999 0.0005 
466 1 0.00887547 0.0226801 0.021 0.001 
467 1 0.00896553 0.025085 0.0207499 0.00075 
468 1 0.0104111 0.0235768 0.0216382 0.00075 
469 1 0.00946365 0.0266693 0.0205 0.0005 
470 1 0.00946367 0.0239661 0.0205 0.0005 
471 1 0.0128066 0.0242387 0.0205 0.0005 
473 1 0.013044 0.0252101 0.0205 0.0005 
474 1 0.0139334 0.0239909 0.0204999 0.0005 
475 1 0.0116905 0.0228998 0.0205 0.0005 
476 1 0.0127577 0.0218491 0.0204999 0.0005 
477 1 0.0111074 0.0244941 0.0211522 0.0005 
478 1 0.0109773 0.0236134 0.0205 0.0005 
479 1 0.0133766 0.0217085 0.0215768 0.00075 
480 1 0.0111786 0.0263532 0.0205 0.0005 
481 1 0.0122728 0.024893 0.0214325 0.00075 
482 1 0.0140387 0.0250015 0.0212279 0.00075 
483 1 0.0118421 0.0256051 0.0204999 0.0005 
484 1 0.0118072 0.0242033 0.0204999 0.0005 
485 1 0.0122041 0.0235108 0.0211022 0.0005 
486 1 0.0150415 0.0251682 0.0205 0.0005 
487 1 0.0105814 0.0223804 0.0207499 0.00075 
488 1 0.0152314 0.0232272 0.0205 0.0005 
489 1 0.0103527 0.024424 0.0205 0.0005 
490 1 0.0132701 0.0229614 0.0207499 0.00075 
491 1 0.0142625 0.0259926 0.0204998 0.0005 
492 1 0.0109043 0.0252581 0.0205 0.0005 
493 1 0.0104099 0.0269926 0.0205 0.0005 
494 1 0.014332 0.0260029 0.0219159 0.0005 
495 1 0.0128945 0.0267851 0.0212499 0.00125 
496 1 0.014916 0.0241761 0.0205 0.0005 
497 1 0.0149445 0.0267238 0.0204999 0.0005 
498 1 0.0149955 0.0259053 0.0211742 0.0005 
499 1 0.014633 0.0268324 0.0214439 0.0005 
501 1 0.0145626 0.0222005 0.0207499 0.00075 
502 1 0.0144732 0.0234236 0.0211217 0.0005 
503 1 0.0157399 0.0247608 0.0210884 0.0005 
504 1 0.0122384 0.0223889 0.0211623 0.0005 
505 1 0.0102408 0.0260062 0.0204999 0.0005 
506 1 0.0155065 0.0273058 0.0212255 0.0005 
507 1 0.0112739 0.0276926 0.0214206 0.0005 
508 1 0.0131667 0.0240198 0.0214068 0.0005 
509 1 0.0114392 0.022877 0.0215129 0.0005 
510 1 0.0085972 0.0262779 0.0208098 0.0005 
511 1 0.0154038 0.0264191 0.0219286 0.0005 
512 1 0.00932018 0.0241776 0.0215329 0.0005 
514 1 0.0117515 0.0218197 0.0204999 0.0005 
516 1 0.0154805 0.0228657 0.022083 0.001 
517 1 0.0114089 0.0273263 0.0205 0.0005 
518 1 0.00920306 0.0276347 0.0205 0.0005 
519 1 0.014498 0.0278707 0.0207499 0.00075 
520 1 0.0149454 0.0276043 0.0219974 0.0005 
523 1 0.0150397 0.0241721 0.0214923 0.0005 
1723 1 0.0114395 0.0215835 0.021687 0.00075 
1708 1 0.00848042 0.0280244 0.0217729 0.001 