ITEM: TIMESTEP
340000
ITEM: NUMBER OF ATOMS
2802
ITEM: BOX BOUNDS mm mm mm
-2.4e-06 0.0240024
-7.8e-06 0.0780078
-3e-06 0.030003
ITEM: ATOMS id type x y z radius 
291 1 0.0033211 0.0017114 0.0217629 0.0015 
368 1 0.000504971 0.00155934 0.0205 0.0005 
784 1 0.00565979 0.00347184 0.02075 0.00075 
32 1 0.00539429 0.000579167 0.0205 0.0005 
241 1 0.00472546 0.0024551 0.0205 0.0005 
815 1 0.0016931 0.00135843 0.0205 0.0005 
448 1 0.00413322 0.00332509 0.0205 0.0005 
300 1 0.000499989 0.00051365 0.0205 0.0005 
442 1 0.00131916 0.0030561 0.0209999 0.001 
816 1 0.00612648 0.00490341 0.0205 0.0005 
710 1 0.004393 0.000578314 0.0205002 0.0005 
527 1 0.000735409 0.00558039 0.0209693 0.0005 
256 1 0.000881397 0.00686082 0.0205 0.0005 
100 1 0.00511472 0.00256228 0.0214203 0.0005 
153 1 0.00546907 0.00178023 0.0205023 0.0005 
486 1 0.00415406 0.00544298 0.0225115 0.00225 
722 1 0.0022765 0.00552639 0.0205 0.0005 
864 1 0.00530734 0.00125986 0.0215335 0.0005 
503 1 0.000502173 0.0041696 0.0215864 0.0005 
561 1 0.0066087 0.00223009 0.02075 0.00075 
501 1 0.00649967 0.000727953 0.0216345 0.0005 
64 1 0.0067899 0.00660537 0.021 0.001 
954 1 0.0064686 0.000531517 0.0205 0.0005 
390 1 0.000937179 0.00490284 0.0222514 0.0005 
380 1 0.00539468 0.00686874 0.0205 0.0005 
587 1 0.000659517 0.00322396 0.0223366 0.0005 
370 1 0.00763053 0.000911412 0.0207672 0.00075 
28 1 0.000929851 0.000852555 0.0216237 0.00075 
220 1 0.00758005 0.000749991 0.0222628 0.00075 
307 1 0.00789232 0.00212498 0.0205 0.0005 
2736 1 0.00312542 0.00336928 0.0206606 0.0005 
998 1 0.00126608 0.00702564 0.0218355 0.00075 
870 1 0.00813628 0.0061625 0.0205 0.0005 
324 1 0.00816254 0.0041292 0.0219995 0.002 
1195 1 0.00860232 0.00169503 0.0214889 0.0005 
121 1 0.00914783 0.00615505 0.0205 0.0005 
228 1 0.00982075 0.005395 0.0205 0.0005 
490 1 0.0101371 0.00444666 0.0204998 0.0005 
199 1 0.0117679 0.00341742 0.0204996 0.0005 
395 1 0.0108007 0.00275236 0.0205 0.0005 
474 1 0.0140517 0.00194625 0.0207493 0.00075 
282 1 0.0106094 0.00140381 0.0204995 0.0005 
590 1 0.00983508 0.000510809 0.0205 0.0005 
176 1 0.0136865 0.000500639 0.0205 0.0005 
289 1 0.0111116 0.000500216 0.0205 0.0005 
362 1 0.00883489 0.000505449 0.0205 0.0005 
783 1 0.0110933 0.00415503 0.0205006 0.0005 
51 1 0.0134964 0.00320601 0.0205 0.0005 
233 1 0.00969674 0.00221978 0.0207499 0.00075 
217 1 0.0109355 0.00514211 0.0204998 0.0005 
549 1 0.0105525 0.00484184 0.0214057 0.0005 
126 1 0.0127416 0.00484899 0.0215 0.0015 
676 1 0.010494 0.000749668 0.0215578 0.00075 
209 1 0.0139556 0.00608372 0.0204997 0.0005 
730 1 0.00870097 0.00150644 0.0205 0.0005 
764 1 0.0107133 0.00670458 0.0212552 0.00125 
311 1 0.0145329 0.00668191 0.0217478 0.001 
763 1 0.0100289 0.00341018 0.0204998 0.0005 
66 1 0.0144969 0.00498264 0.0205 0.0005 
61 1 0.0149352 0.00588152 0.0205 0.0005 
108 1 0.0151482 0.00354184 0.02125 0.00125 
89 1 0.00859105 0.000512063 0.0214867 0.0005 
155 1 0.0121172 0.00187654 0.0212506 0.00125 
178 1 0.014959 0.000750105 0.02075 0.00075 
364 1 0.0108119 0.00343963 0.0215446 0.00075 
895 1 0.0115562 0.000500269 0.0221772 0.0005 
598 1 0.0128822 0.000501107 0.0220155 0.0005 
171 1 0.0131253 0.0069844 0.0207509 0.00075 
581 1 0.0124667 0.00697655 0.0221781 0.00075 
161 1 0.0232501 0.000749857 0.0207499 0.00075 
159 1 0.0227503 0.00336758 0.0204997 0.0005 
204 1 0.0235001 0.00512809 0.0204998 0.0005 
219 1 0.0214475 0.000999924 0.0209998 0.001 
333 1 0.0232499 0.0041947 0.0212923 0.00075 
142 1 0.0232502 0.00224968 0.0207498 0.00075 
200 1 0.0203475 0.00253411 0.0207499 0.00075 
340 1 0.0216113 0.00439162 0.0207499 0.00075 
452 1 0.0235002 0.00612782 0.0204999 0.0005 
518 1 0.0197187 0.000763505 0.02075 0.00075 
185 1 0.0164988 0.00564535 0.0212499 0.00125 
31 1 0.016973 0.00149974 0.0214998 0.0015 
123 1 0.0228431 0.00100735 0.0224322 0.001 
273 1 0.021846 0.00287139 0.0215883 0.001 
113 1 0.016787 0.00329456 0.0205 0.0005 
544 1 0.0187575 0.00422686 0.0209997 0.001 
577 1 0.0232501 0.00565714 0.0216305 0.00075 
652 1 0.0182414 0.00555172 0.0214842 0.0005 
290 1 0.018847 0.0024945 0.02075 0.00075 
281 1 0.0204039 0.00385407 0.0214602 0.00075 
57 1 0.0203326 0.00610247 0.0215 0.0015 
143 1 0.0226004 0.00557607 0.0205 0.0005 
853 1 0.0180735 0.00549565 0.0205 0.0005 
106 1 0.0220993 0.00517031 0.0215972 0.0005 
1012 1 0.0181979 0.00677869 0.0217189 0.00075 
109 1 0.0185644 0.00637029 0.0205 0.0005 
75 1 0.0023813 0.00711501 0.02075 0.00075 
887 1 0.00705886 0.00743594 0.0222537 0.0005 
274 1 0.00791536 0.00746074 0.0204997 0.0005 
1359 1 0.00359585 0.00772689 0.0205 0.0005 
588 1 0.00453097 0.00737264 0.0205 0.0005 
360 1 0.00600952 0.0119907 0.0205 0.0005 
154 1 0.00502566 0.00849319 0.0207498 0.00075 
13 1 0.00050421 0.00779179 0.0205 0.0005 
879 1 0.00605089 0.00782138 0.0205 0.0005 
137 1 0.000674632 0.00878666 0.0205 0.0005 
44 1 0.0051896 0.00998522 0.02075 0.00075 
1166 1 0.00600648 0.00797059 0.0218056 0.00075 
1234 1 0.00586281 0.00915204 0.0214039 0.0005 
323 1 0.00277564 0.00955397 0.0219997 0.002 
820 1 0.00055368 0.00978005 0.0205001 0.0005 
1067 1 0.00784312 0.0124904 0.0205 0.0005 
713 1 0.00255014 0.0117733 0.0205 0.0005 
881 1 0.000525519 0.0107795 0.0205 0.0005 
943 1 0.00366055 0.0115875 0.0205027 0.0005 
673 1 0.00489813 0.0114573 0.0207499 0.00075 
174 1 0.00109812 0.0120713 0.0210027 0.001 
447 1 0.00627289 0.00901533 0.0205 0.0005 
737 1 0.00562304 0.0129347 0.0205 0.0005 
646 1 0.00139523 0.0138074 0.0205 0.0005 
508 1 0.000500651 0.0133528 0.0205 0.0005 
872 1 0.0074341 0.011336 0.0207508 0.00075 
439 1 0.00697335 0.0138829 0.0212499 0.00125 
891 1 0.00703833 0.00800507 0.0204999 0.0005 
427 1 0.00480682 0.00811968 0.0223342 0.0005 
1190 1 0.00521525 0.00901518 0.0221548 0.0005 
479 1 0.000503375 0.013202 0.0218193 0.0005 
911 1 0.00506394 0.0110959 0.0219357 0.0005 
296 1 0.0036111 0.0137142 0.0222499 0.00225 
35 1 0.00782911 0.00934248 0.0217628 0.0015 
196 1 0.000500084 0.0140224 0.0212432 0.0005 
2621 1 0.006567 0.0104694 0.0205003 0.0005 
1070 1 0.00825987 0.00713346 0.021818 0.00075 
636 1 0.0120553 0.00757987 0.0205 0.0005 
611 1 0.00854734 0.0141185 0.0205 0.0005 
275 1 0.0145095 0.00825773 0.0207499 0.00075 
46 1 0.00909682 0.00777833 0.0207539 0.00075 
556 1 0.0136933 0.009579 0.0207499 0.00075 
287 1 0.0107203 0.0108052 0.0205 0.0005 
865 1 0.0132054 0.012614 0.0204999 0.0005 
756 1 0.0115904 0.0093007 0.0215001 0.0015 
318 1 0.0134381 0.00804717 0.0217783 0.00075 
686 1 0.00950209 0.00893817 0.0205003 0.0005 
10 1 0.0154291 0.00906657 0.0205 0.0005 
569 1 0.0125192 0.0108201 0.0205 0.0005 
252 1 0.00862611 0.0110021 0.0205 0.0005 
188 1 0.0148913 0.0130101 0.0214999 0.0015 
772 1 0.0124886 0.0119135 0.0205026 0.0005 
709 1 0.00965757 0.0101754 0.02075 0.00075 
1061 1 0.0116101 0.0113722 0.0205 0.0005 
1118 1 0.00965459 0.0101247 0.0219989 0.0005 
59 1 0.0118707 0.0127005 0.0205 0.0005 
974 1 0.0113987 0.0139062 0.0204999 0.0005 
734 1 0.0126028 0.0136831 0.0207501 0.00075 
968 1 0.0124662 0.0113692 0.0216297 0.00075 
62 1 0.00987074 0.012616 0.0219998 0.002 
1238 1 0.0102369 0.00822152 0.0204996 0.0005 
1028 1 0.0136996 0.0111491 0.0207499 0.00075 
1653 1 0.0146975 0.00911198 0.0216428 0.0005 
80 1 0.0152716 0.0104099 0.021155 0.001 
810 1 0.0097335 0.00821448 0.0221668 0.00075 
1080 1 0.0139164 0.0110988 0.0222349 0.00075 
714 1 0.0159343 0.0116271 0.0205 0.0005 
192 1 0.0157651 0.00743727 0.0207498 0.00075 
1056 1 0.0158304 0.0113748 0.0221663 0.0005 
1922 1 0.0162791 0.00857633 0.0206956 0.0005 
6 1 0.0225392 0.00716492 0.0209997 0.001 
190 1 0.0172746 0.00745594 0.0207499 0.00075 
1846 1 0.0163174 0.00955676 0.0205 0.0005 
342 1 0.0169428 0.0124708 0.02075 0.00075 
319 1 0.0210805 0.00766812 0.0205 0.0005 
293 1 0.0187311 0.0110353 0.0217496 0.00175 
735 1 0.0207398 0.0100286 0.0216298 0.0005 
308 1 0.0201466 0.00879842 0.0209998 0.001 
49 1 0.0170276 0.0102608 0.0205 0.0005 
146 1 0.0193913 0.00755609 0.0204998 0.0005 
578 1 0.0230003 0.00911067 0.0209998 0.001 
90 1 0.018536 0.00814341 0.0211966 0.00075 
71 1 0.0215735 0.00885547 0.0205 0.0005 
659 1 0.0174838 0.00911408 0.0207493 0.00075 
967 1 0.0168689 0.0112484 0.0205 0.0005 
130 1 0.0214419 0.0117229 0.0205 0.0005 
41 1 0.0216229 0.0101604 0.0207508 0.00075 
231 1 0.0235 0.0104372 0.0205 0.0005 
279 1 0.0235 0.0079652 0.0218294 0.0005 
693 1 0.0213115 0.00795333 0.0214302 0.0005 
725 1 0.0226157 0.0112845 0.0207499 0.00075 
697 1 0.0203992 0.0101895 0.0204996 0.0005 
330 1 0.0223398 0.0127588 0.0207497 0.00075 
78 1 0.0227098 0.0139261 0.0204997 0.0005 
800 1 0.0205965 0.01118 0.0204999 0.0005 
538 1 0.0234978 0.0122459 0.0206681 0.0005 
1236 1 0.0176558 0.0130142 0.0217529 0.0005 
812 1 0.0216783 0.0119571 0.021448 0.0005 
944 1 0.0234989 0.0136177 0.0214228 0.0005 
794 1 0.0166802 0.0122114 0.0219442 0.0005 
592 1 0.0180111 0.0130691 0.0204997 0.0005 
910 1 0.0215545 0.00912831 0.0219855 0.00075 
523 1 0.0186605 0.0138316 0.0205012 0.0005 
956 1 0.0190074 0.0128863 0.0205 0.0005 
350 1 0.0204856 0.013789 0.0214998 0.0015 
639 1 0.0224627 0.0140855 0.0214551 0.0005 
1899 1 0.0165072 0.0113298 0.0214294 0.0005 
1138 1 0.0227844 0.0105125 0.0220248 0.00075 
272 1 0.0234991 0.0132329 0.0204999 0.0005 
770 1 0.0235 0.0115157 0.0216024 0.0005 
1517 1 0.0211023 0.0111421 0.0213616 0.0005 
1498 1 0.01856 0.0132574 0.0213136 0.0005 
1575 1 0.0219946 0.00794668 0.0221606 0.0005 
2494 1 0.0187381 0.0132172 0.0222965 0.0005 
782 1 0.000500056 0.0146873 0.0219917 0.0005 
70 1 0.000500435 0.0146915 0.0205 0.0005 
888 1 0.00325336 0.0158054 0.0205001 0.0005 
550 1 0.0034164 0.0170304 0.0205 0.0005 
1 1 0.00758948 0.0157187 0.0207499 0.00075 
529 1 0.00125021 0.0160966 0.0212498 0.00125 
269 1 0.00733492 0.017637 0.021255 0.00125 
19 1 0.00497977 0.016776 0.0212499 0.00125 
1077 1 0.00648186 0.0162731 0.0205 0.0005 
1060 1 0.00776478 0.0152877 0.0219851 0.0005 
1004 1 0.00611329 0.0193331 0.0207731 0.00075 
688 1 0.000501231 0.0191806 0.0205 0.0005 
896 1 0.00732742 0.0192157 0.0205 0.0005 
1660 1 0.00554911 0.0182516 0.0205 0.0005 
972 1 0.0065926 0.0157689 0.02187 0.00075 
223 1 0.00370922 0.0194474 0.0217499 0.00175 
700 1 0.00577546 0.0207945 0.02075 0.00075 
678 1 0.00100619 0.0205839 0.0209999 0.001 
315 1 0.003074 0.0167532 0.0218566 0.00075 
600 1 0.00783404 0.0207135 0.0212499 0.00125 
576 1 0.00083284 0.0179925 0.02075 0.00075 
1094 1 0.00613476 0.0189172 0.0222143 0.00075 
1884 1 0.000499996 0.018925 0.021513 0.0005 
430 1 0.00226556 0.0176441 0.0212416 0.0005 
1293 1 0.00243695 0.0210334 0.0205 0.0005 
1829 1 0.00628275 0.0168516 0.0224289 0.0005 
1388 1 0.000749969 0.0197216 0.022501 0.00075 
110 1 0.0136894 0.0142596 0.0205 0.0005 
2226 1 0.0133482 0.0142818 0.0215576 0.0005 
436 1 0.00818559 0.0161675 0.0217528 0.0005 
43 1 0.0154804 0.0146389 0.0205 0.0005 
877 1 0.00871805 0.0193952 0.0205 0.0005 
1859 1 0.00855495 0.0188888 0.0213467 0.0005 
748 1 0.00822578 0.0144701 0.0223329 0.0005 
1682 1 0.00952477 0.0211597 0.0223608 0.0005 
1570 1 0.00885027 0.018227 0.0205 0.0005 
1144 1 0.00955539 0.0210033 0.0213731 0.0005 
1196 1 0.00914317 0.0166295 0.0224875 0.0005 
695 1 0.00881686 0.0150591 0.0213052 0.00075 
54 1 0.0093718 0.0166961 0.0210004 0.001 
786 1 0.00975477 0.0151125 0.0221299 0.0005 
180 1 0.0109715 0.0190408 0.0219998 0.002 
221 1 0.0115815 0.0156285 0.0214999 0.0015 
118 1 0.0143197 0.015707 0.0212579 0.00125 
717 1 0.0129137 0.0185492 0.0205 0.0005 
1232 1 0.00973734 0.014801 0.0205 0.0005 
934 1 0.0140311 0.0190712 0.0207642 0.00075 
1310 1 0.0138726 0.0178453 0.0205 0.0005 
1212 1 0.0148573 0.0181714 0.0204998 0.0005 
624 1 0.0130223 0.0166045 0.0205 0.0005 
1035 1 0.0119856 0.0173167 0.0205 0.0005 
1592 1 0.0129094 0.0195565 0.0205 0.0005 
1697 1 0.00932965 0.0201926 0.0205 0.0005 
2033 1 0.0137425 0.0204172 0.0214798 0.0005 
1264 1 0.0115725 0.0209524 0.0204999 0.0005 
1164 1 0.0127836 0.0208005 0.0207687 0.00075 
2117 1 0.0159613 0.0151014 0.0213048 0.0005 
982 1 0.0149028 0.0202365 0.0205 0.0005 
1448 1 0.0129306 0.0175745 0.0207253 0.0005 
2386 1 0.0144511 0.0176688 0.0216269 0.00075 
2420 1 0.0138905 0.0202849 0.0204998 0.0005 
2431 1 0.0149013 0.0171726 0.0204998 0.0005 
2511 1 0.0157759 0.0166789 0.0207622 0.0005 
2287 1 0.015112 0.0186839 0.0213194 0.0005 
2500 1 0.0156448 0.0194911 0.0215716 0.0005 
2378 1 0.0147377 0.0205133 0.0214465 0.0005 
2447 1 0.0137054 0.018832 0.0222134 0.00075 
2086 1 0.0135628 0.0169871 0.0221816 0.0005 
1311 1 0.0157027 0.0196359 0.0205 0.0005 
1601 1 0.0128495 0.0210315 0.0222793 0.00075 
2460 1 0.0160014 0.018681 0.0205 0.0005 
2645 1 0.0156568 0.0173745 0.0214711 0.0005 
1338 1 0.0157465 0.017711 0.0205 0.0005 
1376 1 0.00889187 0.0176416 0.022063 0.0005 
2392 1 0.0127294 0.0172625 0.0216557 0.0005 
1577 1 0.0141856 0.0212407 0.0205 0.0005 
189 1 0.0158978 0.0156917 0.0205 0.0005 
2630 1 0.0148178 0.0193955 0.0221254 0.0005 
2614 1 0.0152656 0.0204535 0.0223588 0.0005 
139 1 0.0171165 0.0141946 0.0209999 0.001 
1193 1 0.0185637 0.0143271 0.0213713 0.0005 
345 1 0.0186634 0.0148316 0.0204999 0.0005 
741 1 0.017739 0.015276 0.02184 0.0005 
450 1 0.0179179 0.0154984 0.0205 0.0005 
947 1 0.0175198 0.0173705 0.0205 0.0005 
591 1 0.0221859 0.0151088 0.02075 0.00075 
465 1 0.0188717 0.0164059 0.0205 0.0005 
719 1 0.0189224 0.0155919 0.0214576 0.00075 
628 1 0.0234996 0.0164495 0.0205 0.0005 
42 1 0.0222868 0.0166951 0.0207499 0.00075 
747 1 0.020915 0.0154914 0.0205 0.0005 
813 1 0.0200162 0.0164023 0.0205 0.0005 
787 1 0.0185159 0.017476 0.0205 0.0005 
492 1 0.0194926 0.0172543 0.0205 0.0005 
238 1 0.0234926 0.0174494 0.0205 0.0005 
1216 1 0.0196975 0.0168799 0.0216749 0.00075 
1230 1 0.0169728 0.0162755 0.0207568 0.00075 
566 1 0.0206562 0.017639 0.0207499 0.00075 
1333 1 0.0210684 0.0164858 0.0205 0.0005 
1091 1 0.0195062 0.0182543 0.0204999 0.0005 
1398 1 0.0211069 0.0199744 0.0205 0.0005 
1189 1 0.0235001 0.0144353 0.0208405 0.0005 
1427 1 0.0196839 0.0153243 0.0204999 0.0005 
898 1 0.0188978 0.0177916 0.0213697 0.0005 
1452 1 0.0198736 0.0194443 0.0207499 0.00075 
1488 1 0.0184427 0.0188606 0.0207534 0.00075 
1124 1 0.0235 0.0153755 0.0204999 0.0005 
1020 1 0.0224233 0.018812 0.0214999 0.0015 
1401 1 0.0213633 0.0160577 0.0220927 0.001 
1298 1 0.0201445 0.0157726 0.0212661 0.0005 
1170 1 0.0232434 0.015912 0.0215994 0.00075 
1831 1 0.0174826 0.0180167 0.0212629 0.0005 
957 1 0.0234988 0.020401 0.0205 0.0005 
1320 1 0.0190152 0.0206747 0.02075 0.00075 
1598 1 0.0199665 0.0206693 0.0215672 0.0005 
1437 1 0.0234972 0.0205183 0.0215014 0.0005 
1184 1 0.0235 0.0171268 0.0214464 0.0005 
1692 1 0.0196441 0.0184494 0.0214709 0.0005 
1828 1 0.0179307 0.0169508 0.0213272 0.0005 
1202 1 0.0207509 0.0200413 0.0214321 0.0005 
1460 1 0.0210449 0.0209742 0.021776 0.0005 
1984 1 0.018926 0.0197038 0.0215397 0.0005 
1738 1 0.0172181 0.0188363 0.020501 0.0005 
1648 1 0.0170963 0.0204135 0.0212503 0.00125 
2467 1 0.0167139 0.017964 0.0205027 0.0005 
1963 1 0.0187188 0.0205967 0.021965 0.0005 
1434 1 0.0232503 0.0145779 0.0222911 0.00075 
1796 1 0.0198112 0.0192648 0.0220508 0.0005 
1105 1 0.0207032 0.0209102 0.0205 0.0005 
1865 1 0.0167275 0.0186713 0.0213588 0.0005 
1767 1 0.0209764 0.0174999 0.0219502 0.0005 
1929 1 0.0201586 0.0180137 0.0222094 0.0005 
2072 1 0.0234976 0.0173908 0.022411 0.0005 
2099 1 0.0197963 0.0155279 0.0223671 0.0005 
1416 1 0.00387303 0.0213114 0.0205 0.0005 
1578 1 0.00492412 0.0213244 0.0214986 0.0005 
482 1 0.000500043 0.0219046 0.0205 0.0005 
12 1 0.00192336 0.0221583 0.02075 0.00075 
952 1 0.0057098 0.0244081 0.0205 0.0005 
1439 1 0.00717273 0.0227257 0.0210138 0.00075 
831 1 0.00527501 0.0229262 0.0209999 0.001 
534 1 0.000750177 0.0231036 0.02075 0.00075 
1423 1 0.00169481 0.0265407 0.0206445 0.0005 
1406 1 0.00100356 0.0254224 0.0205 0.0005 
483 1 0.000582019 0.02658 0.0205 0.0005 
1483 1 0.00654082 0.0217729 0.0205 0.0005 
1512 1 0.00324526 0.0236132 0.0205 0.0005 
752 1 0.00565827 0.0255889 0.0205 0.0005 
1805 1 0.00339933 0.0224184 0.0208361 0.00075 
1576 1 0.000512149 0.0245266 0.0205 0.0005 
1373 1 0.00691934 0.0257378 0.02075 0.00075 
1860 1 0.00483638 0.0215815 0.0205 0.0005 
1625 1 0.000499951 0.0220415 0.0214911 0.0005 
1455 1 0.00199924 0.0243034 0.0210005 0.001 
1942 1 0.00620834 0.021706 0.0218606 0.00075 
1926 1 0.000520655 0.0230488 0.0219775 0.0005 
1520 1 0.00723064 0.0268536 0.0212566 0.0005 
1143 1 0.00362877 0.0280959 0.0207617 0.00075 
2021 1 0.0078219 0.0265737 0.0205 0.0005 
980 1 0.00677782 0.027331 0.0205034 0.0005 
1825 1 0.000500509 0.0243779 0.0214918 0.0005 
2481 1 0.00714711 0.0281206 0.0210396 0.0005 
1650 1 0.0080131 0.0222304 0.022104 0.0005 
2583 1 0.00408651 0.0238433 0.0209916 0.0005 
1893 1 0.000792667 0.0239521 0.0223485 0.0005 
2706 1 0.00063811 0.0255961 0.0220743 0.0005 
348 1 0.00217548 0.0278848 0.0205 0.0005 
775 1 0.00528139 0.0248698 0.0221517 0.00125 
1662 1 0.00400265 0.0219035 0.0221146 0.00075 
1285 1 0.000760535 0.0281743 0.0207499 0.00075 
2759 1 0.00171563 0.0257552 0.0220802 0.0005 
2779 1 0.00384631 0.0271916 0.0224121 0.00075 
946 1 0.00803679 0.0243386 0.0222254 0.00125 
904 1 0.00828817 0.0240846 0.0205072 0.0005 
1081 1 0.00875015 0.0259643 0.0205 0.0005 
1343 1 0.0104974 0.0215387 0.02075 0.00075 
1394 1 0.00892575 0.0226749 0.0209997 0.001 
1698 1 0.0093308 0.0248368 0.02075 0.00075 
1342 1 0.0104174 0.0241258 0.0217119 0.00075 
978 1 0.00990134 0.0260138 0.0205 0.0005 
1208 1 0.00987233 0.0237314 0.0205 0.0005 
1757 1 0.0149873 0.0213384 0.0219533 0.0005 
1350 1 0.0129986 0.0234022 0.0205014 0.0005 
919 1 0.00927702 0.0277811 0.0217499 0.00175 
780 1 0.0126334 0.0256035 0.0205005 0.0005 
353 1 0.0143549 0.0235184 0.0205 0.0005 
1294 1 0.0120923 0.0229786 0.0204998 0.0005 
1180 1 0.0116317 0.0220024 0.0205 0.0005 
1462 1 0.0107205 0.0253956 0.0214687 0.0005 
1467 1 0.0119441 0.0239785 0.0205 0.0005 
1552 1 0.0124888 0.0221978 0.0213914 0.00075 
1602 1 0.0108945 0.0262354 0.0205 0.0005 
1621 1 0.0119823 0.0253581 0.0215607 0.00075 
861 1 0.0139578 0.0246766 0.0207514 0.00075 
1643 1 0.0114901 0.0249014 0.0205016 0.0005 
1539 1 0.0127235 0.0246061 0.0205 0.0005 
1330 1 0.0136304 0.0235862 0.0212674 0.0005 
1192 1 0.0146004 0.0259775 0.0205 0.0005 
1614 1 0.0108568 0.022995 0.02075 0.00075 
1693 1 0.0150313 0.0226855 0.0205019 0.0005 
1618 1 0.0107577 0.0242173 0.0205004 0.0005 
1221 1 0.0138289 0.0224123 0.0207499 0.00075 
1915 1 0.0136062 0.0258492 0.0204999 0.0005 
1869 1 0.0105303 0.0252361 0.0205 0.0005 
1655 1 0.0110359 0.0220526 0.0223597 0.001 
2193 1 0.0111423 0.0273162 0.0205 0.0005 
2263 1 0.0139363 0.025885 0.0214432 0.0005 
2270 1 0.0127559 0.0271803 0.021252 0.00125 
1753 1 0.0147596 0.023868 0.0213449 0.0005 
862 1 0.0147797 0.0272734 0.0205 0.0005 
1775 1 0.0145222 0.0222073 0.0217838 0.0005 
2004 1 0.0145804 0.0266314 0.0212567 0.0005 
1958 1 0.0144419 0.0275536 0.0216235 0.0005 
2243 1 0.0157848 0.0269895 0.0211867 0.00075 
1017 1 0.0153809 0.0215018 0.0207563 0.00075 
2348 1 0.014405 0.0231697 0.0220403 0.0005 
1955 1 0.0151628 0.0261302 0.0218968 0.0005 
144 1 0.0156532 0.0250313 0.021 0.001 
1563 1 0.0153468 0.0236485 0.0205027 0.0005 
2594 1 0.0138158 0.0215058 0.0216119 0.0005 
2603 1 0.0118531 0.0233187 0.0214327 0.0005 
2121 1 0.00969122 0.0255674 0.0216991 0.0005 
2261 1 0.0153059 0.0277286 0.0220957 0.0005 
2026 1 0.0112716 0.0266349 0.0222088 0.0005 
2662 1 0.0135208 0.0227182 0.0219219 0.0005 
1876 1 0.0153759 0.0242232 0.0222343 0.0005 
1794 1 0.0158767 0.022903 0.0217234 0.001 
2201 1 0.0117003 0.0242068 0.0219737 0.0005 
2403 1 0.0119758 0.0282258 0.022437 0.0005 
2393 1 0.0114522 0.0283354 0.0215379 0.0005 
1755 1 0.0159705 0.021453 0.0220957 0.0005 
1935 1 0.0110753 0.0283141 0.0205 0.0005 
2010 1 0.012671 0.0229171 0.0224097 0.0005 
1219 1 0.0222908 0.0212821 0.0209996 0.001 
152 1 0.0210372 0.0236759 0.0204997 0.0005 
1292 1 0.0169681 0.0239042 0.0207498 0.00075 
512 1 0.0191546 0.0265157 0.0205 0.0005 
1288 1 0.0165107 0.0219713 0.0205 0.0005 
1048 1 0.0182301 0.0219832 0.02075 0.00075 
1415 1 0.0216971 0.0225656 0.0204999 0.0005 
1087 1 0.0234998 0.0254805 0.0205 0.0005 
1176 1 0.0181901 0.0257613 0.0207502 0.00075 
1269 1 0.02325 0.0227548 0.02075 0.00075 
1507 1 0.0234999 0.024796 0.021855 0.0005 
1574 1 0.0234976 0.0264805 0.0205 0.0005 
1472 1 0.0232502 0.0242549 0.0207504 0.00075 
1590 1 0.0222026 0.0248886 0.0204996 0.0005 
1634 1 0.018657 0.0237083 0.02075 0.00075 
908 1 0.0222178 0.0234193 0.0205 0.0005 
1646 1 0.0172186 0.0226797 0.0205 0.0005 
1927 1 0.0166597 0.0264191 0.0205 0.0005 
1897 1 0.0176256 0.0229632 0.0217148 0.00075 
1370 1 0.0231072 0.0276414 0.02075 0.00075 
1243 1 0.0201295 0.0249701 0.0212499 0.00125 
1978 1 0.0169985 0.0254779 0.0205 0.0005 
1881 1 0.0166379 0.0243203 0.0218812 0.0005 
1514 1 0.0201265 0.022384 0.0212498 0.00125 
1925 1 0.0217579 0.0241497 0.021005 0.0005 
1768 1 0.0161609 0.0279639 0.0205 0.0005 
1527 1 0.0179063 0.0246172 0.0216779 0.00075 
1106 1 0.0177146 0.0276397 0.02125 0.00125 
1323 1 0.0192417 0.0280532 0.0205 0.0005 
1090 1 0.022327 0.026099 0.0217568 0.00125 
1837 1 0.0163663 0.0278152 0.0223547 0.0005 
1015 1 0.0218789 0.0275235 0.0205 0.0005 
1974 1 0.0235 0.0280015 0.0218807 0.0005 
1267 1 0.0204524 0.0271828 0.0209999 0.001 
2065 1 0.0186312 0.023649 0.0220013 0.0005 
1758 1 0.0166464 0.0260378 0.0224143 0.001 
2303 1 0.0184753 0.0218448 0.0222403 0.00075 
1910 1 0.0192878 0.0273007 0.0219378 0.0005 
2198 1 0.0235001 0.0271887 0.0224628 0.0005 
1480 1 0.00652811 0.0292144 0.0207508 0.00075 
1103 1 0.0052386 0.0295783 0.0205003 0.0005 
138 1 0.00776358 0.029441 0.0205 0.0005 
162 1 0.000557399 0.0325351 0.0205 0.0005 
259 1 0.00351933 0.0322273 0.0205 0.0005 
522 1 0.00123714 0.0337795 0.0207508 0.00075 
337 1 0.0032521 0.030961 0.02075 0.00075 
638 1 0.00448344 0.0331248 0.02075 0.00075 
506 1 0.000529803 0.0349624 0.0214837 0.0005 
1084 1 0.00131259 0.0306289 0.02075 0.00075 
1355 1 0.00246117 0.0337397 0.0205 0.0005 
1451 1 0.0042769 0.0291459 0.0205 0.0005 
412 1 0.00204834 0.0322122 0.0209999 0.001 
1607 1 0.00145103 0.0293701 0.0205 0.0005 
1529 1 0.00530797 0.0348138 0.02075 0.00075 
1290 1 0.000505881 0.0297069 0.0205 0.0005 
1449 1 0.00261753 0.0288458 0.0205 0.0005 
1761 1 0.00604795 0.0338214 0.0205 0.0005 
1760 1 0.00324037 0.0332298 0.0208649 0.0005 
1611 1 0.00477419 0.034012 0.0215811 0.0005 
2278 1 0.00235793 0.029832 0.0205 0.0005 
2244 1 0.00186672 0.0284618 0.021256 0.0005 
2306 1 0.00551194 0.0320313 0.02075 0.00075 
2343 1 0.00584117 0.0303806 0.0205 0.0005 
2387 1 0.00680111 0.0328544 0.02075 0.00075 
2407 1 0.00437502 0.0315402 0.0205 0.0005 
2421 1 0.00568883 0.0331982 0.0212491 0.0005 
2423 1 0.00587654 0.0296421 0.0221634 0.00075 
2493 1 0.00682085 0.0341301 0.021871 0.0005 
672 1 0.00694615 0.0346681 0.0207498 0.00075 
2537 1 0.00416528 0.0301447 0.0205 0.0005 
1872 1 0.00731243 0.0309858 0.0212499 0.00125 
1792 1 0.00427491 0.0319668 0.0217054 0.00075 
2484 1 0.00596013 0.0318532 0.021943 0.0005 
2573 1 0.00506515 0.0307205 0.0214212 0.00075 
2427 1 0.00457528 0.0287494 0.0213759 0.0005 
1702 1 0.000581612 0.0285146 0.0219649 0.0005 
1993 1 0.0021637 0.0293669 0.0220654 0.00075 
2455 1 0.00738849 0.0326616 0.021909 0.0005 
2622 1 0.00641086 0.032894 0.0219654 0.0005 
1291 1 0.000789049 0.0338362 0.0221834 0.00075 
2548 1 0.003038 0.0315504 0.0219124 0.0005 
2570 1 0.00532749 0.0326262 0.0219857 0.0005 
897 1 0.000500106 0.0347588 0.0205 0.0005 
1168 1 0.00319995 0.0329408 0.0220978 0.00075 
2337 1 0.00755757 0.0335654 0.0214983 0.0005 
2449 1 0.00720921 0.028838 0.02174 0.0005 
1136 1 0.000755578 0.0322046 0.0221794 0.00075 
2381 1 0.00432053 0.029674 0.0224055 0.0005 
2530 1 0.00383041 0.0309524 0.0224308 0.0005 
1987 1 0.0146133 0.0284939 0.0219836 0.0005 
1870 1 0.0143054 0.028438 0.0207509 0.00075 
2301 1 0.0131691 0.0287835 0.0223813 0.00075 
505 1 0.00861807 0.0299611 0.0205 0.0005 
886 1 0.0092712 0.030719 0.0205 0.0005 
1249 1 0.0136109 0.0329223 0.02075 0.00075 
1154 1 0.0110983 0.0324423 0.0205003 0.0005 
609 1 0.0122745 0.0326635 0.0205 0.0005 
1134 1 0.00849656 0.0325504 0.02075 0.00075 
1340 1 0.0116828 0.0334697 0.0205 0.0005 
1678 1 0.0126691 0.0338884 0.0204999 0.0005 
1703 1 0.0105926 0.031579 0.0205 0.0005 
1095 1 0.0136355 0.0341465 0.0204998 0.0005 
1815 1 0.00960904 0.0317596 0.0205 0.0005 
1348 1 0.0130882 0.0300764 0.0205 0.0005 
1594 1 0.0139517 0.0352342 0.0213085 0.0005 
2043 1 0.0107457 0.0292585 0.0204999 0.0005 
1867 1 0.00903314 0.0332766 0.0219788 0.00075 
1793 1 0.0142173 0.0296789 0.0217768 0.00075 
2242 1 0.0119488 0.0311785 0.0209999 0.001 
2245 1 0.010111 0.0308332 0.0214228 0.00075 
2266 1 0.013123 0.0287575 0.0205 0.0005 
1954 1 0.0107283 0.0302587 0.0205 0.0005 
924 1 0.0118648 0.0351708 0.0205 0.0005 
1762 1 0.0090133 0.0313958 0.021216 0.0005 
640 1 0.00998135 0.0329842 0.02075 0.00075 
2323 1 0.013221 0.0350563 0.0204999 0.0005 
2362 1 0.0140476 0.0297889 0.0205 0.0005 
2347 1 0.0124792 0.0346626 0.0211037 0.0005 
1361 1 0.0152728 0.0300001 0.0207535 0.00075 
2202 1 0.0139483 0.0312238 0.0210002 0.001 
2451 1 0.0119661 0.0291598 0.02075 0.00075 
1083 1 0.0152114 0.0340207 0.0212499 0.00125 
835 1 0.00846947 0.0341072 0.0205 0.0005 
2305 1 0.0151693 0.0315223 0.0218249 0.0005 
2225 1 0.00972789 0.0297583 0.0205614 0.0005 
2408 1 0.0134194 0.0343984 0.0214431 0.0005 
2304 1 0.0109949 0.0344003 0.0214544 0.001 
2444 1 0.0129538 0.0354328 0.0215298 0.0005 
2574 1 0.0130776 0.0293794 0.0212845 0.0005 
698 1 0.0154434 0.0320982 0.0207499 0.00075 
2317 1 0.0111866 0.0297034 0.0222196 0.001 
2404 1 0.0125859 0.033495 0.0216834 0.00075 
1854 1 0.0158902 0.0287578 0.0216854 0.00075 
2390 1 0.0085367 0.0321078 0.0219187 0.0005 
2376 1 0.0135663 0.0348087 0.0223431 0.0005 
2252 1 0.0126435 0.0322449 0.0217964 0.0005 
2577 1 0.0116495 0.0326503 0.0213093 0.0005 
2505 1 0.0126501 0.0301215 0.0218009 0.0005 
2439 1 0.0156872 0.0324747 0.0219178 0.0005 
2247 1 0.01259 0.0346932 0.0220971 0.0005 
1786 1 0.0154984 0.0287135 0.0204996 0.0005 
2469 1 0.00978117 0.035101 0.0205 0.0005 
2412 1 0.0126623 0.030993 0.0223063 0.0005 
1409 1 0.0164765 0.0289214 0.0205 0.0005 
1113 1 0.0175248 0.0295668 0.0207498 0.00075 
1044 1 0.0197496 0.0295527 0.0212499 0.00125 
557 1 0.019709 0.0336826 0.0212505 0.00125 
304 1 0.0225303 0.0310879 0.0204996 0.0005 
1142 1 0.022071 0.0346041 0.0205 0.0005 
1335 1 0.0174196 0.0330658 0.0205 0.0005 
1414 1 0.0235 0.0354104 0.0205 0.0005 
1016 1 0.0232499 0.0320786 0.02075 0.00075 
1531 1 0.0180764 0.0338343 0.0205 0.0005 
1329 1 0.023499 0.0288022 0.0204999 0.0005 
1318 1 0.018656 0.0325034 0.0205 0.0005 
1305 1 0.0182889 0.0308587 0.02075 0.00075 
1258 1 0.0234945 0.029807 0.0205 0.0005 
1695 1 0.0181079 0.0352608 0.021 0.001 
1224 1 0.0167629 0.0313861 0.0207945 0.00075 
878 1 0.0232285 0.0335793 0.02075 0.00075 
1213 1 0.0195518 0.0316682 0.02075 0.00075 
1447 1 0.0162141 0.0304197 0.0218486 0.00075 
1603 1 0.0164795 0.0302049 0.0205 0.0005 
1403 1 0.0174274 0.0306205 0.0216241 0.0005 
1445 1 0.0235002 0.030846 0.0205003 0.0005 
1362 1 0.0232372 0.0301259 0.021712 0.00075 
1442 1 0.0181176 0.0292501 0.0218034 0.0005 
1626 1 0.0177338 0.0321164 0.0205004 0.0005 
1534 1 0.0221014 0.0299411 0.0207499 0.00075 
1579 1 0.0216322 0.0334575 0.02075 0.00075 
1468 1 0.0179724 0.032171 0.0222337 0.00125 
1227 1 0.0171926 0.0338402 0.0214545 0.00075 
1812 1 0.0234944 0.0289227 0.0214925 0.0005 
2044 1 0.0163958 0.0329001 0.0205 0.0005 
959 1 0.0195219 0.0352521 0.0204998 0.0005 
2008 1 0.0189143 0.0284024 0.0222708 0.0005 
1699 1 0.0234999 0.0325416 0.0218838 0.0005 
2478 1 0.016669 0.0349862 0.0213224 0.0005 
2311 1 0.0194083 0.0311701 0.0218952 0.0005 
809 1 0.0213896 0.0316356 0.0220478 0.0015 
1420 1 0.0218508 0.0285263 0.0221409 0.00125 
2382 1 0.0186304 0.0305475 0.0221625 0.0005 
1073 1 0.00631297 0.0371188 0.02075 0.00075 
249 1 0.00294441 0.0356807 0.0219998 0.002 
535 1 0.000566646 0.0357567 0.0205 0.0005 
844 1 0.00493683 0.0371778 0.0205 0.0005 
366 1 0.00252402 0.0376794 0.0205 0.0005 
680 1 0.00390834 0.0379471 0.02075 0.00075 
733 1 0.00220325 0.0407449 0.0205 0.0005 
1108 1 0.000749996 0.039884 0.02075 0.00075 
316 1 0.000504404 0.036755 0.0205 0.0005 
1276 1 0.00267185 0.039297 0.0210001 0.001 
91 1 0.00635174 0.0411604 0.02075 0.00075 
2422 1 0.000657318 0.0413224 0.0205 0.0005 
2458 1 0.00433191 0.0390987 0.0205 0.0005 
1177 1 0.00415459 0.041081 0.0212499 0.00125 
2542 1 0.00562152 0.0392762 0.02075 0.00075 
457 1 0.00101637 0.0381651 0.0209999 0.001 
451 1 0.00139868 0.0422973 0.02075 0.00075 
2629 1 0.00610217 0.0402494 0.0215686 0.0005 
2527 1 0.00735164 0.0404362 0.021332 0.0005 
2634 1 0.00585965 0.036438 0.0217158 0.0005 
2713 1 0.00598398 0.0389917 0.021995 0.0005 
2553 1 0.00181571 0.0410145 0.0214969 0.0005 
1679 1 0.00717018 0.0424274 0.02075 0.00075 
1568 1 0.0032531 0.0381608 0.0218034 0.0005 
2694 1 0.00151157 0.0421926 0.0221909 0.0005 
1309 1 0.00632417 0.0421943 0.0216582 0.0005 
2552 1 0.0038693 0.0425079 0.0222824 0.0005 
2689 1 0.00728054 0.0392736 0.0223153 0.0005 
2152 1 0.000501756 0.0361337 0.0223185 0.0005 
1167 1 0.0144936 0.03547 0.0205 0.0005 
960 1 0.0085769 0.0354888 0.02075 0.00075 
471 1 0.0104666 0.0392815 0.02125 0.00125 
2018 1 0.00824543 0.0424726 0.0220382 0.0005 
1353 1 0.0100138 0.0417103 0.0204995 0.0005 
1419 1 0.0126375 0.0377696 0.0207497 0.00075 
1019 1 0.0134906 0.038649 0.0205 0.0005 
1043 1 0.0143862 0.040875 0.0209995 0.001 
1107 1 0.0107777 0.0364833 0.02075 0.00075 
901 1 0.0111826 0.0410805 0.0207499 0.00075 
1149 1 0.0134868 0.0362517 0.02075 0.00075 
1482 1 0.012154 0.0422232 0.02075 0.00075 
1265 1 0.0139845 0.0395189 0.0205 0.0005 
1705 1 0.0146059 0.0387355 0.0205 0.0005 
1716 1 0.0154362 0.0423863 0.0205 0.0005 
912 1 0.00862127 0.0414573 0.0209999 0.001 
1346 1 0.0126505 0.0407656 0.02075 0.00075 
1743 1 0.0158134 0.0394741 0.0209999 0.001 
1661 1 0.0144085 0.04227 0.0215718 0.0005 
1181 1 0.0141319 0.0376057 0.02075 0.00075 
1802 1 0.0151781 0.0381288 0.0211904 0.0005 
2083 1 0.0136519 0.0396306 0.0214431 0.0005 