ITEM: TIMESTEP
590000
ITEM: NUMBER OF ATOMS
2330
ITEM: BOX BOUNDS mm mm mm
-2.4e-06 0.0240024
-7.8e-06 0.0780078
-3e-06 0.030003
ITEM: ATOMS id type x y z radius 
1 1 0.00329809 0.00233796 0.0215001 0.0015 
2 1 0.000500077 0.001856 0.0205 0.0005 
3 1 0.0054316 0.00451105 0.02075 0.00075 
4 1 0.00469017 0.000499956 0.0205 0.0005 
5 1 0.00441334 0.00382461 0.0205 0.0005 
6 1 0.00271177 0.000499999 0.0205 0.0005 
7 1 0.00443989 0.00527455 0.0205 0.0005 
8 1 0.000499994 0.000500553 0.0205 0.0005 
9 1 0.00099996 0.00318533 0.021 0.001 
10 1 0.00720985 0.00604386 0.0205 0.0005 
11 1 0.0037 0.000653175 0.0205 0.0005 
12 1 0.000499999 0.00556428 0.0205 0.0005 
13 1 0.00558243 0.00339459 0.0217178 0.0005 
14 1 0.00483477 0.00153824 0.0205001 0.0005 
15 1 0.0016425 0.00659568 0.0205 0.0005 
16 1 0.00586393 0.00148656 0.0205 0.0005 
17 1 0.000499894 0.00450806 0.0204999 0.0005 
18 1 0.00539976 0.00262484 0.0207499 0.00075 
19 1 0.00593077 0.000500334 0.0215087 0.0005 
20 1 0.00569019 0.000500749 0.0205 0.0005 
21 1 0.000750253 0.000499991 0.0214681 0.0005 
22 1 0.00685179 0.0022491 0.02075 0.00075 
23 1 0.00153458 0.0011569 0.0207499 0.00075 
24 1 0.00689673 0.000749888 0.02075 0.00075 
25 1 0.00320517 0.00406975 0.0205 0.0005 
27 1 0.00283837 0.00502936 0.0205 0.0005 
28 1 0.00221804 0.00390557 0.0205 0.0005 
29 1 0.00182568 0.000749988 0.022164 0.00075 
31 1 0.00050002 0.00146713 0.0214213 0.0005 
32 1 0.000500134 0.00626848 0.02121 0.0005 
33 1 0.00161337 0.00501795 0.0207498 0.00075 
34 1 0.0062817 0.00347463 0.0205 0.0005 
36 1 0.00507794 0.000974731 0.02129 0.0005 
37 1 0.00243481 0.0041502 0.021445 0.0005 
38 1 0.00418548 0.000500179 0.0213633 0.0005 
40 1 0.000499994 0.000520673 0.0224361 0.0005 
41 1 0.00727878 0.00339826 0.0205 0.0005 
42 1 0.00789525 0.00145892 0.0205 0.0005 
43 1 0.00684153 0.00434102 0.0205 0.0005 
1724 1 0.00600927 0.00629583 0.02075 0.00075 
1770 1 0.00242131 0.00593818 0.0204998 0.0005 
1665 1 0.00137478 0.00594056 0.0215676 0.0005 
1715 1 0.00479839 0.000631081 0.0221866 0.0005 
1926 1 0.00369205 0.00480641 0.0213858 0.00075 
1662 1 0.00670917 0.00483426 0.021911 0.001 
1735 1 0.00541375 0.0018197 0.0217061 0.0005 
1762 1 0.00655947 0.00144128 0.0220408 0.00075 
1812 1 0.000749963 0.00469452 0.0219327 0.00075 
44 1 0.0080176 0.00668997 0.0205 0.0005 
1633 1 0.00803392 0.00397753 0.0208069 0.0005 
1806 1 0.0081192 0.00522336 0.02075 0.00075 
99 1 0.00915782 0.00559037 0.0220995 0.0005 
45 1 0.00888065 0.00618459 0.0205 0.0005 
46 1 0.00934614 0.00522054 0.0205 0.0005 
47 1 0.0113307 0.00432789 0.0205 0.0005 
48 1 0.0096304 0.00257806 0.0205 0.0005 
49 1 0.0137794 0.00257552 0.0207499 0.00075 
50 1 0.00997195 0.00163503 0.0204998 0.0005 
51 1 0.0101836 0.000499987 0.0205 0.0005 
52 1 0.0123983 0.000572907 0.0205 0.0005 
53 1 0.0112069 0.00118811 0.0205 0.0005 
54 1 0.00818623 0.000500693 0.0205 0.0005 
55 1 0.0105833 0.00539374 0.0205 0.0005 
56 1 0.0129418 0.00415794 0.0205 0.0005 
57 1 0.00830702 0.00261232 0.0207498 0.00075 
58 1 0.0108786 0.00677683 0.0205 0.0005 
59 1 0.00988307 0.00611576 0.0205 0.0005 
60 1 0.0122939 0.00576797 0.0214998 0.0015 
61 1 0.0104608 0.00113926 0.0215377 0.00075 
62 1 0.0089631 0.00152656 0.0205 0.0005 
63 1 0.00896839 0.00379062 0.0205 0.0005 
64 1 0.0139991 0.00545875 0.0205018 0.0005 
66 1 0.0149032 0.00415291 0.0212498 0.00125 
67 1 0.00918493 0.000551481 0.0205 0.0005 
68 1 0.0115934 0.00276238 0.0212499 0.00125 
69 1 0.0136225 0.000755741 0.02075 0.00075 
70 1 0.0101041 0.00425653 0.0207506 0.00075 
71 1 0.0116008 0.000499993 0.0211093 0.0005 
72 1 0.0128509 0.00175974 0.0205 0.0005 
75 1 0.0156091 0.00150226 0.0214999 0.0015 
65 1 0.0137786 0.00669441 0.0205 0.0005 
2063 1 0.0125307 0.000749833 0.0215016 0.0005 
183 1 0.0155817 0.0069342 0.0205 0.0005 
2015 1 0.00987645 0.0055337 0.0213149 0.0005 
1623 1 0.0159098 0.00543973 0.0221257 0.0005 
143 1 0.0148455 0.0059947 0.0205003 0.0005 
1828 1 0.013461 0.00236335 0.0224585 0.001 
1644 1 0.0102547 0.00612681 0.0223811 0.00075 
1608 1 0.0161155 0.00583677 0.0207704 0.00075 
74 1 0.0165086 0.0046531 0.0205 0.0005 
76 1 0.0226277 0.000778974 0.02075 0.00075 
77 1 0.0234903 0.00529852 0.0205 0.0005 
78 1 0.0205979 0.00099984 0.0209999 0.001 
79 1 0.0232462 0.00294813 0.02075 0.00075 
81 1 0.0208828 0.00278852 0.02075 0.00075 
82 1 0.0206073 0.00507323 0.0205 0.0005 
83 1 0.0189463 0.00153222 0.02075 0.00075 
84 1 0.0218094 0.00185614 0.0205 0.0005 
85 1 0.0171095 0.000635859 0.0205001 0.0005 
86 1 0.0234888 0.0017251 0.0205 0.0005 
87 1 0.0209925 0.00407976 0.0205 0.0005 
88 1 0.0181005 0.000500005 0.0205006 0.0005 
89 1 0.0223686 0.00203217 0.0216203 0.00075 
90 1 0.0212662 0.00610445 0.020758 0.00075 
91 1 0.0198775 0.00589408 0.0205008 0.0005 
92 1 0.0224597 0.00418644 0.0205 0.0005 
93 1 0.0220403 0.00323337 0.0205 0.0005 
94 1 0.0189282 0.00683832 0.0205 0.0005 
95 1 0.0234656 0.00424415 0.0205 0.0005 
97 1 0.0173413 0.00593859 0.0205074 0.0005 
182 1 0.0232493 0.00655653 0.02075 0.00075 
1643 1 0.0211215 0.00495571 0.0213497 0.0005 
1663 1 0.0216461 0.0048659 0.0205006 0.0005 
1901 1 0.0203066 0.00629764 0.0215369 0.0005 
1650 1 0.0224742 0.00540522 0.0218173 0.001 
2044 1 0.0165377 0.00307122 0.0205 0.0005 
1612 1 0.022943 0.00356069 0.0224321 0.001 
96 1 0.0211349 0.0070025 0.0217144 0.0005 
187 1 0.022103 0.0069964 0.0204999 0.0005 
2221 1 0.0223726 0.000748161 0.0221587 0.0005 
1629 1 0.0186454 0.00416624 0.022252 0.00225 
1979 1 0.0221836 0.00683905 0.0214842 0.0005 
35 1 0.000536732 0.00765187 0.0219854 0.0005 
1682 1 0.00302557 0.00742644 0.0220751 0.00175 
26 1 0.00075002 0.00743678 0.0207501 0.00075 
100 1 0.0060615 0.00802853 0.0210001 0.001 
101 1 0.00165484 0.00826544 0.0205 0.0005 
102 1 0.0047621 0.00746786 0.0205003 0.0005 
103 1 0.00166848 0.0104763 0.0205 0.0005 
104 1 0.00225623 0.00940178 0.02075 0.00075 
105 1 0.00667675 0.0113853 0.0205 0.0005 
106 1 0.00363287 0.00909727 0.0205 0.0005 
107 1 0.00313165 0.0121797 0.0205145 0.0005 
108 1 0.00442275 0.0111735 0.02075 0.00075 
109 1 0.000500196 0.0107039 0.0205 0.0005 
110 1 0.00532631 0.00985778 0.0205 0.0005 
111 1 0.00126165 0.0113901 0.0205 0.0005 
112 1 0.00426811 0.0126669 0.0207513 0.00075 
113 1 0.00549448 0.0105028 0.0215574 0.00075 
114 1 0.00520925 0.0119334 0.0214836 0.0005 
116 1 0.00264771 0.0131093 0.0205008 0.0005 
118 1 0.000500235 0.013088 0.0204999 0.0005 
119 1 0.00349635 0.0136446 0.0205 0.0005 
122 1 0.00635852 0.0122529 0.0208828 0.0005 
124 1 0.00570805 0.011137 0.0205 0.0005 
125 1 0.00533499 0.0120651 0.0205 0.0005 
126 1 0.00391123 0.0139707 0.0213494 0.0005 
128 1 0.00701814 0.0128997 0.0205 0.0005 
129 1 0.00573633 0.012981 0.0205 0.0005 
130 1 0.00157868 0.0125644 0.0208539 0.00075 
131 1 0.000500032 0.0120391 0.0205 0.0005 
132 1 0.00631858 0.00973372 0.0205 0.0005 
133 1 0.00404767 0.0100074 0.0205 0.0005 
134 1 0.000759871 0.00950616 0.02075 0.00075 
136 1 0.00148894 0.00944812 0.0217753 0.0005 
137 1 0.00289417 0.0135349 0.021374 0.0005 
138 1 0.000501614 0.00847987 0.021415 0.0005 
139 1 0.00749145 0.00754056 0.0205 0.0005 
140 1 0.000499583 0.0135983 0.0213597 0.0005 
141 1 0.00762891 0.00876879 0.0207498 0.00075 
1822 1 0.00298934 0.0107113 0.02075 0.00075 
154 1 0.00737696 0.0103813 0.0207533 0.00075 
1865 1 0.000507987 0.0112894 0.0213109 0.0005 
1780 1 0.00467061 0.00913936 0.0212851 0.00075 
222 1 0.0065676 0.013859 0.0205 0.0005 
1934 1 0.00367122 0.0130522 0.0217819 0.0005 
120 1 0.00500833 0.0139716 0.02075 0.00075 
1893 1 0.00365729 0.0109235 0.0221076 0.00075 
123 1 0.000499755 0.0141086 0.0204999 0.0005 
1655 1 0.00672584 0.00960985 0.021871 0.00075 
1805 1 0.00273784 0.0120511 0.0217371 0.00075 
1890 1 0.000867547 0.0104053 0.0216117 0.0005 
163 1 0.00783722 0.011812 0.02075 0.00075 
1700 1 0.00770627 0.00819253 0.0224004 0.001 
148 1 0.00811434 0.0134466 0.0207494 0.00075 
142 1 0.0140666 0.00871245 0.0205 0.0005 
144 1 0.00963886 0.0104606 0.0205011 0.0005 
145 1 0.0131322 0.00835501 0.0205 0.0005 
147 1 0.0129677 0.00736476 0.0205 0.0005 
149 1 0.00957325 0.00767029 0.0212499 0.00125 
150 1 0.0118114 0.0078339 0.0207499 0.00075 
151 1 0.0119313 0.0093429 0.02075 0.00075 
152 1 0.0108549 0.00862441 0.0205 0.0005 
153 1 0.0114709 0.0107705 0.0207499 0.00075 
155 1 0.0119249 0.0122 0.0207499 0.00075 
156 1 0.00946135 0.0114469 0.0205003 0.0005 
158 1 0.0085318 0.0107875 0.0205 0.0005 
159 1 0.013437 0.00948973 0.0205 0.0005 
160 1 0.0104334 0.0118597 0.0205 0.0005 
164 1 0.00981093 0.0133367 0.0205 0.0005 
165 1 0.009364 0.0124421 0.0205 0.0005 
166 1 0.011032 0.0134332 0.02075 0.00075 
167 1 0.00946069 0.00927838 0.0205 0.0005 
168 1 0.0125416 0.0135665 0.0207929 0.00075 
169 1 0.0127124 0.0112353 0.0205 0.0005 
170 1 0.0141939 0.0110753 0.0209999 0.001 
171 1 0.00862362 0.0097483 0.0213042 0.00075 
172 1 0.0123018 0.0111712 0.0219391 0.00075 
173 1 0.0132306 0.0121106 0.0204999 0.0005 
174 1 0.0139548 0.0128466 0.0205012 0.0005 
175 1 0.00946638 0.0110213 0.0214316 0.0005 
176 1 0.00873786 0.0125007 0.0212775 0.0005 
177 1 0.00863744 0.0116099 0.0217343 0.0005 
179 1 0.0127723 0.010237 0.0205 0.0005 
180 1 0.0130688 0.0124424 0.0216941 0.00075 
184 1 0.0149667 0.00984128 0.0213635 0.0005 
1640 1 0.0113858 0.00798593 0.0221802 0.00075 
1732 1 0.0103456 0.00975345 0.0216225 0.001 
181 1 0.0144757 0.00968925 0.0205 0.0005 
191 1 0.0151777 0.0081493 0.0207528 0.00075 
1614 1 0.0108319 0.0123144 0.0221116 0.001 
192 1 0.0156677 0.0109652 0.0205017 0.0005 
1815 1 0.0153731 0.0106557 0.0218267 0.0005 
1775 1 0.0125122 0.0141665 0.0218891 0.0005 
1740 1 0.0158682 0.0115167 0.0213227 0.0005 
325 1 0.0136944 0.01395 0.0204997 0.0005 
1676 1 0.0135388 0.0113489 0.0223213 0.0005 
1592 1 0.0154139 0.013775 0.0223056 0.002 
2095 1 0.012796 0.01001 0.0222196 0.0005 
1831 1 0.00913374 0.00921278 0.0223588 0.0005 
1916 1 0.0159337 0.00917543 0.0218351 0.0005 
161 1 0.00911007 0.0141593 0.0204999 0.0005 
178 1 0.0168545 0.0127882 0.0205038 0.0005 
80 1 0.0201323 0.00725321 0.0207498 0.00075 
185 1 0.0234915 0.00824653 0.0205 0.0005 
186 1 0.0172448 0.00767632 0.0215056 0.0015 
188 1 0.023135 0.00775503 0.0216606 0.00075 
189 1 0.0234997 0.00976704 0.0205 0.0005 
190 1 0.0215228 0.00828601 0.0210001 0.001 
193 1 0.0178566 0.0134939 0.0207504 0.00075 
194 1 0.0199986 0.0084765 0.0205 0.0005 
196 1 0.0203453 0.00990779 0.0212947 0.0005 
197 1 0.0189075 0.00959877 0.0209999 0.001 
198 1 0.0163153 0.0119177 0.0205 0.0005 
199 1 0.0174978 0.00946924 0.0205 0.0005 
200 1 0.023 0.0111208 0.0209999 0.001 
201 1 0.0160559 0.00978363 0.02075 0.00075 
202 1 0.020792 0.00949675 0.0205 0.0005 
203 1 0.0171248 0.0108602 0.0207513 0.00075 
204 1 0.0175015 0.0120257 0.0205 0.0005 
205 1 0.020055 0.0132577 0.0205 0.0005 
206 1 0.0209883 0.0112403 0.02075 0.00075 
207 1 0.0234977 0.012457 0.0205 0.0005 
208 1 0.0234982 0.00892026 0.0213536 0.0005 
209 1 0.0202097 0.00890833 0.0213768 0.0005 
210 1 0.0221571 0.0126342 0.02075 0.00075 
211 1 0.0200356 0.0104529 0.0205 0.0005 
212 1 0.0221032 0.0141336 0.0207527 0.00075 
213 1 0.0205657 0.012392 0.0205001 0.0005 
214 1 0.0235 0.0134588 0.0205 0.0005 
215 1 0.0210767 0.0132534 0.0205 0.0005 
216 1 0.0216255 0.0100048 0.0213136 0.00075 
217 1 0.0172754 0.0121306 0.0214688 0.0005 
218 1 0.0211016 0.0123318 0.0217727 0.00075 
219 1 0.0230728 0.0133464 0.0213971 0.0005 
221 1 0.0234997 0.0124427 0.0215035 0.0005 
324 1 0.0190857 0.0135084 0.0205 0.0005 
1626 1 0.0190698 0.0119005 0.0212664 0.00125 
1691 1 0.0231535 0.00981808 0.0221589 0.00075 
1684 1 0.021767 0.0111252 0.0218542 0.0005 
1915 1 0.0235002 0.00865513 0.0224576 0.0005 
220 1 0.0205892 0.0138713 0.0211169 0.0005 
2005 1 0.020532 0.010826 0.0221265 0.00075 
1851 1 0.019545 0.00728541 0.0223976 0.001 
1835 1 0.017861 0.0127384 0.0222949 0.0005 
117 1 0.00358707 0.0146467 0.0205 0.0005 
121 1 0.00184547 0.0145413 0.0210009 0.001 
223 1 0.00453565 0.0151747 0.0205 0.0005 
224 1 0.00298441 0.0154525 0.0205 0.0005 
225 1 0.00241141 0.0164188 0.0205 0.0005 
226 1 0.00619755 0.0154999 0.0212499 0.00125 
227 1 0.00149188 0.0159431 0.0205 0.0005 
228 1 0.000511407 0.015113 0.0205 0.0005 
229 1 0.000500122 0.0161141 0.0205 0.0005 
230 1 0.00468359 0.0173491 0.0205 0.0005 
231 1 0.0028287 0.0174257 0.0205 0.0005 
232 1 0.00125061 0.0175048 0.0212525 0.00125 
233 1 0.00650217 0.0173238 0.0205 0.0005 
234 1 0.00533304 0.0183882 0.02075 0.00075 
235 1 0.000530746 0.0194457 0.0205 0.0005 
236 1 0.00366087 0.016527 0.0207501 0.00075 
237 1 0.00561895 0.0171378 0.0209305 0.0005 
238 1 0.00456672 0.0161088 0.0215175 0.0005 
239 1 0.00487512 0.0163673 0.0205 0.0005 
240 1 0.00263281 0.0184068 0.0205 0.0005 
241 1 0.000816783 0.0156215 0.0213106 0.0005 
242 1 0.000535993 0.0200854 0.0214291 0.0005 
243 1 0.00354347 0.0188201 0.0205 0.0005 
244 1 0.00449944 0.0193077 0.0205 0.0005 
245 1 0.00639422 0.017251 0.0216795 0.0005 
246 1 0.00333511 0.0198112 0.0204998 0.0005 
247 1 0.001932 0.0196364 0.0209999 0.001 
248 1 0.00485388 0.0192843 0.0215111 0.0005 
249 1 0.00701174 0.0202866 0.0205 0.0005 
250 1 0.00382228 0.0178573 0.0205004 0.0005 
256 1 0.00724058 0.018722 0.0212498 0.00125 
255 1 0.00760613 0.0170069 0.0222674 0.00075 
392 1 0.00566753 0.0198509 0.02075 0.00075 
443 1 0.00429101 0.0205763 0.0207502 0.00075 
1846 1 0.00361376 0.019376 0.0216379 0.00075 
393 1 0.00310723 0.0209374 0.0205 0.0005 
1615 1 0.00472419 0.0174325 0.0214957 0.0005 
259 1 0.00761708 0.0168169 0.02075 0.00075 
395 1 0.000520689 0.0204549 0.0205 0.0005 
1616 1 0.00337331 0.0153446 0.0220107 0.001 
1802 1 0.00459924 0.0205882 0.0219648 0.0005 
411 1 0.000504316 0.0211527 0.021216 0.0005 
390 1 0.0065352 0.0207614 0.0215674 0.00075 
444 1 0.00329345 0.0207905 0.0214719 0.0005 
1636 1 0.00223329 0.021005 0.0221747 0.00075 
432 1 0.00541723 0.0210314 0.0210764 0.0005 
261 1 0.00783027 0.0156019 0.0205 0.0005 
1804 1 0.00317331 0.0179431 0.0215858 0.00075 
2055 1 0.00466445 0.0183639 0.021859 0.0005 
1908 1 0.00398334 0.0169866 0.0224098 0.00075 
1697 1 0.00810127 0.0158621 0.0224194 0.0005 
1855 1 0.0108846 0.0146946 0.0209737 0.0005 
162 1 0.0101007 0.0142938 0.0204999 0.0005 
146 1 0.00821803 0.0146801 0.0205 0.0005 
252 1 0.0117378 0.0144777 0.0204999 0.0005 
254 1 0.0126739 0.0148294 0.0205001 0.0005 
257 1 0.0119553 0.0152113 0.0214882 0.00075 
258 1 0.0112158 0.0155104 0.0204999 0.0005 
260 1 0.0131558 0.0147704 0.0213751 0.0005 
262 1 0.0136728 0.0149496 0.0204999 0.0005 
263 1 0.0124027 0.0158426 0.0205 0.0005 
264 1 0.0100886 0.0184691 0.0204999 0.0005 
265 1 0.00923299 0.0194721 0.0205 0.0005 
267 1 0.0138451 0.0165199 0.0212526 0.00125 
268 1 0.0110907 0.0184105 0.0205002 0.0005 
269 1 0.0100863 0.015299 0.0205 0.0005 
270 1 0.0118768 0.0193903 0.020945 0.00075 
271 1 0.0123261 0.016954 0.0205 0.0005 
272 1 0.014838 0.019359 0.0205 0.0005 
273 1 0.0103926 0.0162512 0.0205 0.0005 
274 1 0.0106389 0.019304 0.0205 0.0005 
275 1 0.0100141 0.0200965 0.0204999 0.0005 
276 1 0.01327 0.0202073 0.0214822 0.0005 
277 1 0.01105 0.0202156 0.0205 0.0005 
278 1 0.0120689 0.0208959 0.0207559 0.00075 
280 1 0.0114777 0.0174834 0.0205013 0.0005 
281 1 0.0124064 0.0180048 0.0211721 0.00075 
282 1 0.0130825 0.0202109 0.0205 0.0005 
283 1 0.0134206 0.018291 0.0205 0.0005 
284 1 0.0130312 0.0192122 0.0205 0.0005 
285 1 0.0140567 0.0199832 0.0205 0.0005 
286 1 0.013825 0.0192293 0.0211164 0.0005 
287 1 0.0129375 0.0191305 0.0220228 0.00075 
288 1 0.0120448 0.0164495 0.021332 0.0005 
289 1 0.0149849 0.0203602 0.0205 0.0005 
290 1 0.0144094 0.0181377 0.0205436 0.0005 
291 1 0.00908877 0.0184818 0.0205 0.0005 
292 1 0.0104838 0.0172723 0.0204999 0.0005 
293 1 0.0149155 0.0210686 0.0212038 0.0005 
294 1 0.0133595 0.0210549 0.0209593 0.0005 
295 1 0.00846662 0.017699 0.0205 0.0005 
296 1 0.0154107 0.0182277 0.0205015 0.0005 
297 1 0.00905607 0.0163831 0.02075 0.00075 
298 1 0.0107985 0.01845 0.0214644 0.0005 
300 1 0.0112482 0.0175568 0.0214734 0.0005 
301 1 0.0114435 0.016484 0.0205 0.0005 
302 1 0.00813686 0.0158453 0.0214201 0.0005 
303 1 0.0120452 0.0202571 0.0218311 0.0005 
304 1 0.0105119 0.0168524 0.0214071 0.0005 
305 1 0.0136264 0.0182415 0.0214775 0.0005 
306 1 0.015025 0.0154687 0.0205 0.0005 
307 1 0.00996816 0.0158686 0.0214327 0.0005 
308 1 0.0123246 0.0171045 0.0220355 0.0005 
309 1 0.0128149 0.020788 0.0221859 0.0005 
310 1 0.012403 0.016124 0.0222156 0.0005 
311 1 0.00945406 0.0175413 0.0204999 0.0005 
312 1 0.0100715 0.0177998 0.0212427 0.0005 
314 1 0.0113238 0.0166536 0.021997 0.0005 
315 1 0.0103949 0.0198196 0.021924 0.001 
316 1 0.0154265 0.0172278 0.0205 0.0005 
317 1 0.0158758 0.0199048 0.0205 0.0005 
319 1 0.0109631 0.0159605 0.0213578 0.0005 
320 1 0.0156483 0.0162515 0.0205 0.0005 
321 1 0.00912218 0.0191221 0.0214306 0.0005 
322 1 0.0142623 0.0203407 0.0214145 0.0005 
323 1 0.00855246 0.017256 0.0214895 0.0005 
331 1 0.0159001 0.0169011 0.0213179 0.0005 
1603 1 0.00909602 0.0151591 0.0205 0.0005 
1637 1 0.00904626 0.0181239 0.0214328 0.0005 
1721 1 0.0154405 0.016379 0.0220365 0.0005 
461 1 0.00850836 0.020878 0.02125 0.00125 
318 1 0.0116922 0.0190979 0.0221464 0.0005 
313 1 0.0112303 0.0210567 0.0216684 0.0005 
279 1 0.0142282 0.0212557 0.0205 0.0005 
2191 1 0.0128045 0.01512 0.0224038 0.0005 
465 1 0.010407 0.0212581 0.0207499 0.00075 
1729 1 0.0220021 0.0162945 0.0220018 0.0005 
326 1 0.0202191 0.0145659 0.0205 0.0005 
327 1 0.023404 0.0144559 0.0205 0.0005 
328 1 0.0187497 0.0143496 0.0209308 0.0005 
329 1 0.0179241 0.0146241 0.0214408 0.0005 
330 1 0.0169546 0.0145612 0.0205 0.0005 
332 1 0.0235 0.0143158 0.0214854 0.0005 
333 1 0.0180527 0.0149376 0.0205 0.0005 
334 1 0.0215214 0.0152371 0.020974 0.0005 
336 1 0.0225246 0.0152828 0.0204999 0.0005 
337 1 0.0170358 0.0159741 0.0209999 0.001 
338 1 0.0185142 0.0157712 0.0208462 0.0005 
339 1 0.0192003 0.0151314 0.0205 0.0005 
340 1 0.0186265 0.0174525 0.0212993 0.0005 
341 1 0.0181964 0.0167839 0.0205 0.0005 
342 1 0.0173597 0.0188692 0.0205 0.0005 
343 1 0.0221395 0.0164449 0.0207519 0.00075 
344 1 0.0180907 0.0177788 0.0205002 0.0005 
345 1 0.0194127 0.0166377 0.02075 0.00075 
346 1 0.0235001 0.0175078 0.0205 0.0005 
347 1 0.0223504 0.0179298 0.0207499 0.00075 
348 1 0.0210161 0.0159582 0.0205 0.0005 
349 1 0.0202981 0.0174848 0.0205 0.0005 
350 1 0.0183836 0.0187367 0.0205 0.0005 
351 1 0.0190904 0.0178369 0.0205009 0.0005 
352 1 0.0235 0.0186313 0.0205 0.0005 
353 1 0.0197721 0.017939 0.0215533 0.00075 
354 1 0.0168636 0.0177191 0.02075 0.00075 
355 1 0.020967 0.0185107 0.0207499 0.00075 
356 1 0.0212852 0.0173251 0.0205 0.0005 
357 1 0.0197406 0.0188183 0.0205 0.0005 
358 1 0.0234998 0.0155046 0.0204999 0.0005 
359 1 0.0200797 0.0156074 0.0205 0.0005 
360 1 0.0187502 0.0187032 0.0214297 0.0005 
361 1 0.0203746 0.0198888 0.02075 0.00075 
362 1 0.0188729 0.0198617 0.02075 0.00075 
363 1 0.0235 0.0165046 0.0205 0.0005 
364 1 0.0225 0.0200456 0.0214999 0.0015 
366 1 0.0206276 0.0167023 0.0210434 0.0005 
367 1 0.0232438 0.0170074 0.0216165 0.00075 
368 1 0.0178451 0.0194263 0.0213126 0.0005 
369 1 0.0235 0.0182134 0.0214084 0.0005 
370 1 0.0196207 0.0191919 0.0214946 0.0005 
371 1 0.0177572 0.0184134 0.0213036 0.0005 
373 1 0.0184453 0.0207133 0.0215625 0.0005 
374 1 0.0176533 0.0199879 0.0205 0.0005 
376 1 0.0161765 0.0189374 0.0205 0.0005 
377 1 0.0229949 0.0155284 0.0216431 0.00075 
378 1 0.0206711 0.0208547 0.0214859 0.0005 
379 1 0.0167882 0.0196408 0.0208619 0.0005 
380 1 0.0213782 0.0169878 0.0216398 0.0005 
381 1 0.0205128 0.0189058 0.0218453 0.0005 
382 1 0.0234971 0.0185331 0.0223559 0.0005 
383 1 0.0201677 0.0158707 0.0216005 0.0005 
385 1 0.0176113 0.0172753 0.0216486 0.0005 
386 1 0.0199165 0.0149278 0.0213817 0.0005 
388 1 0.0203561 0.0168416 0.0220742 0.0005 
1830 1 0.0214649 0.0181406 0.0221155 0.00075 
1972 1 0.0188449 0.0154741 0.0222789 0.001 
391 1 0.00696134 0.0212851 0.0205 0.0005 
394 1 0.00487862 0.0216504 0.0204998 0.0005 
396 1 0.00193751 0.0213689 0.0207499 0.00075 
397 1 0.00535015 0.025245 0.0205 0.0005 
398 1 0.00586056 0.0241065 0.02075 0.00075 
399 1 0.0044583 0.0230004 0.021 0.001 
400 1 0.000750148 0.0222862 0.02075 0.00075 
401 1 0.00113787 0.0254984 0.0213941 0.0005 
402 1 0.00075552 0.0250769 0.0205 0.0005 
403 1 0.000499997 0.0260437 0.0205 0.0005 
404 1 0.00744663 0.0222703 0.0204996 0.0005 
405 1 0.00245601 0.0252512 0.0205 0.0005 
406 1 0.00560392 0.0262874 0.0205 0.0005 
407 1 0.00346181 0.024417 0.0207499 0.00075 
408 1 0.00050048 0.0234853 0.0205 0.0005 
409 1 0.00654752 0.0255027 0.02075 0.00075 
410 1 0.00376517 0.0217079 0.0205 0.0005 
412 1 0.00178243 0.0240316 0.0210557 0.001 
413 1 0.00602479 0.0220812 0.0207498 0.00075 
415 1 0.00660058 0.026759 0.0205 0.0005 
416 1 0.00249484 0.0264752 0.020751 0.00075 
417 1 0.00760353 0.0267884 0.0205 0.0005 
418 1 0.00470489 0.0267295 0.0205 0.0005 
419 1 0.000500218 0.0247282 0.021408 0.0005 
420 1 0.00710164 0.0276534 0.0205 0.0005 
421 1 0.00468559 0.0244674 0.0205 0.0005 
422 1 0.000501013 0.0235319 0.0216917 0.0005 
423 1 0.000526765 0.0264293 0.0214223 0.0005 
424 1 0.00153043 0.0257138 0.0205 0.0005 
426 1 0.00276853 0.0226183 0.02075 0.00075 
427 1 0.00725347 0.0264381 0.0216862 0.00075 
428 1 0.00128002 0.0266845 0.0205 0.0005 
429 1 0.00436577 0.0254212 0.0205 0.0005 
430 1 0.00338989 0.0256396 0.0205 0.0005 
431 1 0.00589631 0.0264952 0.0214334 0.0005 
433 1 0.00142755 0.027685 0.0205 0.0005 
434 1 0.00400847 0.0271792 0.0212497 0.0005 
435 1 0.0037151 0.026586 0.0205 0.0005 
436 1 0.00597439 0.0231123 0.0218676 0.00075 
437 1 0.000841099 0.0277259 0.0213435 0.0005 
438 1 0.000499971 0.0273112 0.0204999 0.0005 
439 1 0.00169277 0.0270026 0.0219036 0.00075 
440 1 0.00493689 0.0267904 0.0214746 0.0005 
442 1 0.00670403 0.0275307 0.0214107 0.0005 
445 1 0.00564331 0.027523 0.0207497 0.00075 
446 1 0.00673233 0.0231155 0.0207731 0.0005 
447 1 0.00049998 0.0278108 0.0222796 0.0005 
448 1 0.00787043 0.0247693 0.0205012 0.0005 
450 1 0.00345532 0.0279181 0.0204999 0.0005 
453 1 0.00726386 0.0239334 0.0205 0.0005 
454 1 0.00442934 0.027691 0.0205 0.0005 
455 1 0.0077203 0.0275235 0.021278 0.0005 
456 1 0.00347165 0.0217999 0.0214515 0.0005 
594 1 0.00247951 0.0276996 0.0205 0.0005 
629 1 0.00359479 0.0273066 0.0221744 0.0005 
1594 1 0.00758405 0.0245021 0.0222135 0.00125 
522 1 0.00706119 0.0222711 0.0214218 0.0005 
463 1 0.00775743 0.0258004 0.0205 0.0005 
1824 1 0.00499526 0.0217495 0.0216301 0.0005 
615 1 0.00337452 0.0280042 0.0214928 0.0005 
1857 1 0.00105387 0.0219583 0.0219173 0.0005 
1939 1 0.00556102 0.0273954 0.022008 0.0005 
1917 1 0.00433972 0.021555 0.0223622 0.0005 
579 1 0.00803132 0.0280693 0.0205 0.0005 
457 1 0.0152361 0.0218927 0.0216719 0.0005 
458 1 0.0102863 0.0213211 0.0219924 0.0005 
459 1 0.0134842 0.0219343 0.0205 0.0005 
460 1 0.0138452 0.0226802 0.0217199 0.0005 
462 1 0.00983984 0.0221086 0.021555 0.0005 
464 1 0.00851867 0.0271916 0.0205 0.0005 
466 1 0.00885037 0.02309 0.0209999 0.001 
467 1 0.0090524 0.0250947 0.0207499 0.00075 
468 1 0.0102844 0.0239032 0.0216729 0.00075 
469 1 0.00941384 0.0267448 0.0205 0.0005 
470 1 0.00981095 0.0241281 0.0205 0.0005 
471 1 0.0131985 0.0244422 0.0205 0.0005 
473 1 0.0129933 0.0254245 0.0205002 0.0005 
474 1 0.0143231 0.0245183 0.0205 0.0005 
475 1 0.0116465 0.0233422 0.0205 0.0005 
476 1 0.0124976 0.0221011 0.0204999 0.0005 
477 1 0.010929 0.025744 0.0209698 0.0005 
478 1 0.010796 0.0239515 0.0205 0.0005 
479 1 0.0128409 0.0219365 0.0216927 0.00075 
480 1 0.0111878 0.026588 0.0205 0.0005 
481 1 0.0124179 0.0250059 0.0215281 0.00075 
482 1 0.0138905 0.0253115 0.0213637 0.00075 
483 1 0.0119125 0.0255909 0.0205 0.0005 
484 1 0.01188 0.0245022 0.0205 0.0005 
485 1 0.0122382 0.0238289 0.0211468 0.0005 
486 1 0.0148675 0.0254401 0.0205 0.0005 
487 1 0.0105495 0.0227512 0.0207499 0.00075 
488 1 0.0149817 0.0236374 0.0205 0.0005 
489 1 0.0105879 0.0249297 0.0205 0.0005 
490 1 0.013197 0.0231321 0.02075 0.00075 
491 1 0.0141614 0.0261733 0.0204999 0.0005 
492 1 0.0100285 0.0258361 0.0205 0.0005 
493 1 0.0103504 0.0274279 0.0205 0.0005 
494 1 0.0141839 0.0264333 0.0221782 0.0005 
495 1 0.0128111 0.0269957 0.02125 0.00125 
496 1 0.015192 0.0246145 0.0209855 0.0005 
497 1 0.0147405 0.0269883 0.0204999 0.0005 
498 1 0.0146957 0.0263894 0.0213197 0.0005 
499 1 0.0144769 0.0273065 0.0216868 0.0005 
500 1 0.0158092 0.0263907 0.0207507 0.00075 
501 1 0.0145975 0.0224446 0.0207499 0.00075 
502 1 0.0142145 0.02375 0.0211313 0.0005 
503 1 0.0152348 0.0255102 0.0214281 0.0005 
504 1 0.0119314 0.022604 0.0211528 0.0005 
505 1 0.0101471 0.0267545 0.0212111 0.0005 
506 1 0.015352 0.0276117 0.0212973 0.0005 
507 1 0.0108073 0.0278349 0.0213071 0.0005 
508 1 0.0133392 0.0241567 0.0214517 0.0005 
509 1 0.0114084 0.0233871 0.0214889 0.0005 
510 1 0.00925184 0.0263636 0.0214254 0.0005 
511 1 0.015494 0.027013 0.0220861 0.0005 
512 1 0.00929775 0.0246397 0.0218878 0.0005 
513 1 0.00834709 0.0259482 0.0213301 0.0005 
514 1 0.0115013 0.0219802 0.0205 0.0005 
515 1 0.0159881 0.0251795 0.0204999 0.0005 
516 1 0.0153063 0.023336 0.0220785 0.001 
517 1 0.0113392 0.0275775 0.0205 0.0005 
518 1 0.00940236 0.0277461 0.0205 0.0005 
519 1 0.0143645 0.0281535 0.0207508 0.00075 
520 1 0.0150053 0.0279956 0.0221825 0.0005 
523 1 0.0148413 0.0247568 0.0219559 0.0005 
1723 1 0.0111265 0.0222455 0.0220396 0.00075 
1708 1 0.00898247 0.0278866 0.0220506 0.001 
535 1 0.0159557 0.0276092 0.0205 0.0005 
1749 1 0.0142509 0.0221199 0.0224597 0.0005 
375 1 0.0168444 0.021347 0.0212499 0.00125 
525 1 0.0160256 0.0227531 0.0205 0.0005 
526 1 0.019244 0.021315 0.02075 0.00075 
527 1 0.021427 0.02141 0.0205 0.0005 
528 1 0.0200332 0.0216009 0.0216762 0.0005 
529 1 0.0190191 0.0220557 0.0217314 0.0005 
530 1 0.0167221 0.0253042 0.0218865 0.001 
532 1 0.0204765 0.0217251 0.0205 0.0005 
533 1 0.0210694 0.0217642 0.0213641 0.0005 
534 1 0.0234999 0.0217872 0.0216396 0.0005 
536 1 0.0234866 0.0215695 0.0205 0.0005 
538 1 0.0223393 0.0224904 0.0210004 0.001 
539 1 0.0200165 0.0248686 0.0205 0.0005 
540 1 0.0162443 0.0239821 0.02075 0.00075 
541 1 0.0195734 0.0257688 0.0204998 0.0005 
542 1 0.0183727 0.0225367 0.02075 0.00075 
543 1 0.0216989 0.0237514 0.0205 0.0005 
544 1 0.0234998 0.026226 0.0205 0.0005 
545 1 0.0183232 0.0255229 0.02075 0.00075 
546 1 0.0232475 0.0239653 0.02075 0.00075 
547 1 0.0234997 0.0231625 0.0216823 0.0005 
548 1 0.0234988 0.0273409 0.0205 0.0005 
549 1 0.0230779 0.0253548 0.0212912 0.00075 
550 1 0.0221484 0.0256242 0.0204999 0.0005 
551 1 0.0179209 0.0239669 0.0207499 0.00075 
552 1 0.0222094 0.0246183 0.0205 0.0005 
553 1 0.0170993 0.0229162 0.0205 0.0005 
554 1 0.0169107 0.0258528 0.0205 0.0005 
555 1 0.0170763 0.0232639 0.0217707 0.00075 
556 1 0.022387 0.0268253 0.0207504 0.00075 
557 1 0.017092 0.0248684 0.0204998 0.0005 
558 1 0.0201586 0.0232935 0.0212499 0.00125 
559 1 0.0211542 0.0245917 0.0205 0.0005 
560 1 0.0184927 0.0246481 0.0219576 0.00075 
561 1 0.0175096 0.0273171 0.02125 0.00125 
562 1 0.0190104 0.0267082 0.0204998 0.0005 
563 1 0.0208701 0.0258569 0.0212539 0.001 
564 1 0.019264 0.0262221 0.0213357 0.0005 
565 1 0.0214811 0.0226381 0.022225 0.0005 
566 1 0.0190492 0.0244433 0.0205 0.0005 
567 1 0.0234995 0.0267839 0.0213304 0.0005 
568 1 0.0234992 0.0261837 0.0221303 0.0005 
569 1 0.019402 0.0251265 0.0212464 0.0005 
570 1 0.0183286 0.0258979 0.0219424 0.0005 
571 1 0.0225471 0.0280392 0.0204999 0.0005 
572 1 0.0215718 0.027227 0.0216091 0.0005 
573 1 0.0215847 0.0277639 0.0205 0.0005 
574 1 0.0200122 0.027937 0.0212497 0.00125 
575 1 0.0184669 0.0233557 0.0216937 0.0005 
576 1 0.0192729 0.0256102 0.0221262 0.0005 
577 1 0.0234676 0.0278268 0.0213734 0.0005 
578 1 0.018892 0.0267026 0.0221298 0.0005 
1630 1 0.0200157 0.0248709 0.0219943 0.0005 
718 1 0.0235002 0.0283412 0.0204999 0.0005 
537 1 0.0163737 0.0266656 0.022411 0.0005 
1746 1 0.0220491 0.02832 0.0220393 0.00075 
1951 1 0.0181772 0.0224032 0.0221441 0.0005 
1818 1 0.02349 0.0243647 0.0219363 0.0005 
372 1 0.0225622 0.0218619 0.0223439 0.0005 
451 1 0.000749842 0.0288221 0.0207499 0.00075 
606 1 0.00202055 0.0284839 0.0217465 0.00075 
580 1 0.000506584 0.0314002 0.0205 0.0005 
581 1 0.0036059 0.03107 0.0204999 0.0005 
582 1 0.00168454 0.0331939 0.0207934 0.00075 
583 1 0.00304687 0.0290727 0.02075 0.00075 
584 1 0.00539351 0.0327117 0.0207499 0.00075 
585 1 0.000500468 0.0332482 0.0214764 0.0005 
586 1 0.00179323 0.0298995 0.02075 0.00075 
587 1 0.00285336 0.0328575 0.0205001 0.0005 
588 1 0.0022801 0.0315616 0.0210001 0.001 
589 1 0.00194232 0.028543 0.0205 0.0005 
590 1 0.000499985 0.0300357 0.0205 0.0005 
591 1 0.00638652 0.033435 0.0204999 0.0005 
592 1 0.00344394 0.0336656 0.0205 0.0005 
593 1 0.00442206 0.0334576 0.0205 0.0005 
595 1 0.0048304 0.0310537 0.02075 0.00075 
596 1 0.00501108 0.0292774 0.0205 0.0005 
597 1 0.00633848 0.0311944 0.02075 0.00075 
598 1 0.00400468 0.0301486 0.0205 0.0005 
599 1 0.0065843 0.0324256 0.0205 0.0005 
600 1 0.00737113 0.034164 0.02075 0.00075 
601 1 0.00420644 0.0286705 0.0205 0.0005 
602 1 0.00659491 0.0292702 0.0212499 0.00125 
603 1 0.00351162 0.0304723 0.0216025 0.00075 
604 1 0.00499246 0.0299668 0.0213458 0.0005 
605 1 0.0047744 0.0284156 0.0215852 0.00075 
607 1 0.00715116 0.0318599 0.0214764 0.0005 
608 1 0.00562961 0.0306798 0.0216417 0.0005 
609 1 0.000757525 0.032049 0.0217177 0.00075 
610 1 0.00294626 0.0303116 0.0204997 0.0005 
611 1 0.00548985 0.0317543 0.0215477 0.0005 
612 1 0.000667045 0.0323966 0.0205 0.0005 
613 1 0.00394939 0.0323065 0.0207499 0.00075 
614 1 0.000750016 0.0305529 0.02161 0.00075 
616 1 0.00416768 0.0294282 0.0211741 0.0005 
617 1 0.000750012 0.0291728 0.0222083 0.00075 
618 1 0.00149762 0.0343946 0.0205 0.0005 
620 1 0.00192387 0.0305403 0.0220394 0.0005 
621 1 0.00494464 0.0295051 0.02224 0.0005 
622 1 0.00741084 0.0318628 0.0205 0.0005 
623 1 0.00714952 0.0308732 0.0216835 0.0005 
624 1 0.00301188 0.0330691 0.0214646 0.0005 
625 1 0.00698456 0.0340618 0.0224216 0.0005 
626 1 0.00744109 0.0329412 0.0205 0.0005 
627 1 0.00254921 0.0296821 0.0217214 0.0005 
628 1 0.00049991 0.0334637 0.0205 0.0005 