ITEM: TIMESTEP
500000
ITEM: NUMBER OF ATOMS
3541
ITEM: BOX BOUNDS mm mm mm
-2.4e-06 0.0240024
-7.8e-06 0.0780078
-3e-06 0.030003
ITEM: ATOMS id type x y z radius 
291 1 0.00322616 0.0024206 0.0214998 0.0015 
368 1 0.000500576 0.00211535 0.0205 0.0005 
784 1 0.005299 0.00450997 0.0207497 0.00075 
32 1 0.00463996 0.000503317 0.0205 0.0005 
241 1 0.00453787 0.00355096 0.0204997 0.0005 
815 1 0.00267451 0.000500004 0.0205 0.0005 
448 1 0.00358103 0.00419613 0.0205 0.0005 
300 1 0.000499988 0.000500398 0.0205 0.0005 
442 1 0.00099973 0.00344102 0.0209999 0.001 
816 1 0.00566626 0.00611901 0.0205 0.0005 
710 1 0.00366706 0.000734562 0.0205 0.0005 
527 1 0.000505467 0.00582622 0.0205 0.0005 
100 1 0.00475083 0.00371416 0.0215424 0.0005 
153 1 0.00470867 0.00152181 0.0205 0.0005 
722 1 0.00150258 0.00575034 0.0205 0.0005 
864 1 0.00570656 0.0014477 0.0205 0.0005 
503 1 0.00049963 0.00476339 0.0204995 0.0005 
561 1 0.00533915 0.00261604 0.02075 0.00075 
501 1 0.00551696 0.000499826 0.0213321 0.0005 
954 1 0.00607095 0.000499942 0.0204998 0.0005 
587 1 0.000740389 0.000499985 0.0214706 0.0005 
370 1 0.00676894 0.00216234 0.02075 0.00075 
28 1 0.00157729 0.00108543 0.02075 0.00075 
220 1 0.00710265 0.000757621 0.0211566 0.00075 
2736 1 0.00253752 0.00403645 0.0205 0.0005 
998 1 0.000749965 0.00703976 0.0207499 0.00075 
2924 1 0.00198192 0.00487267 0.0205 0.0005 
390 1 0.00223455 0.00416754 0.0214439 0.0005 
151 1 0.00188172 0.000749768 0.0221799 0.00075 
486 1 0.00355899 0.00643875 0.0222498 0.00225 
2921 1 0.000501827 0.00147742 0.0212701 0.0005 
1816 1 0.000499951 0.00627568 0.021707 0.0005 
2929 1 0.000945404 0.00511157 0.0216135 0.00075 
463 1 0.00581734 0.00350337 0.0214892 0.0005 
1429 1 0.000845918 0.00683414 0.0224609 0.0005 
175 1 0.00470098 0.00107384 0.0213976 0.0005 
399 1 0.00183796 0.00366591 0.0222233 0.0005 
3005 1 0.00390866 0.000500027 0.0216049 0.0005 
324 1 0.0076352 0.00513361 0.0220586 0.002 
2872 1 0.000499988 0.000499989 0.0224412 0.0005 
307 1 0.00744035 0.00318665 0.0205 0.0005 
1195 1 0.0079264 0.00175896 0.0205 0.0005 
997 1 0.00506665 0.00373747 0.0224909 0.0005 
121 1 0.00832186 0.00696398 0.0205 0.0005 
228 1 0.00934011 0.00608819 0.0204997 0.0005 
490 1 0.00971165 0.00515031 0.0205 0.0005 
199 1 0.0114311 0.0039527 0.0205 0.0005 
395 1 0.00978002 0.0032535 0.0205 0.0005 
474 1 0.0130492 0.00192792 0.0207505 0.00075 
282 1 0.00982326 0.00152063 0.0205 0.0005 
590 1 0.00972857 0.000499914 0.0204998 0.0005 
176 1 0.0126553 0.000503875 0.0205 0.0005 
289 1 0.0107525 0.000500888 0.0205 0.0005 
362 1 0.00813433 0.000499948 0.0204999 0.0005 
783 1 0.0106446 0.0045703 0.0204999 0.0005 
51 1 0.0124102 0.00374938 0.0205 0.0005 
233 1 0.00860966 0.00282234 0.02075 0.00075 
217 1 0.0103398 0.00608124 0.0204999 0.0005 
549 1 0.00997323 0.00564728 0.0213274 0.0005 
126 1 0.0120126 0.00563258 0.0214997 0.0015 
676 1 0.010105 0.000749706 0.021665 0.00075 
730 1 0.00881141 0.00128967 0.0205 0.0005 
763 1 0.00942627 0.00418911 0.0205 0.0005 
66 1 0.0137082 0.00525271 0.0204999 0.0005 
61 1 0.0137826 0.00683852 0.0205 0.0005 
108 1 0.0138722 0.00360698 0.0214609 0.00125 
89 1 0.00893151 0.000499868 0.0211033 0.0005 
155 1 0.0111672 0.00239215 0.0212492 0.00125 
178 1 0.0142602 0.000777565 0.02075 0.00075 
364 1 0.0101657 0.00416594 0.0215813 0.00075 
895 1 0.0113975 0.000499991 0.0213582 0.0005 
598 1 0.0117264 0.000893921 0.0205 0.0005 
1065 1 0.00852745 0.00141533 0.0222205 0.001 
3344 1 0.0153208 0.00333553 0.0205 0.0005 
31 1 0.0162228 0.00159567 0.0214999 0.0015 
161 1 0.0232154 0.000765779 0.02075 0.00075 
159 1 0.0231782 0.00586519 0.0205 0.0005 
219 1 0.0214214 0.000998283 0.0210792 0.001 
142 1 0.0232435 0.00293066 0.02075 0.00075 
340 1 0.0212607 0.00669012 0.0207516 0.00075 
518 1 0.019828 0.00198969 0.02075 0.00075 
113 1 0.0184066 0.00353621 0.0205 0.0005 
290 1 0.0183418 0.0017346 0.02075 0.00075 
853 1 0.0199955 0.00324465 0.0205779 0.0005 
400 1 0.018915 0.000503297 0.0205139 0.0005 
3424 1 0.0234704 0.00247066 0.0219884 0.0005 
3425 1 0.0206436 0.00417047 0.0205 0.0005 
3431 1 0.0182885 0.00117868 0.0218683 0.0005 
3449 1 0.0220387 0.00244383 0.0221404 0.00075 
200 1 0.0219594 0.00415799 0.0208076 0.00075 
3474 1 0.0219984 0.00569943 0.0205002 0.0005 
3488 1 0.0214849 0.00447208 0.0219325 0.0005 
3497 1 0.0205852 0.00414624 0.0215451 0.0005 
3504 1 0.0186823 0.00522269 0.0220022 0.0005 
3520 1 0.0224344 0.00450598 0.0222717 0.0005 
3457 1 0.0223627 0.00577924 0.0221992 0.0005 
3531 1 0.0181225 0.00397379 0.0214811 0.0005 
273 1 0.0202134 0.00536708 0.0224195 0.001 
3536 1 0.017361 0.00507173 0.0244072 0.0005 
842 1 0.00616731 0.00729193 0.0224265 0.0005 
64 1 0.00626065 0.00774602 0.0209999 0.001 
1778 1 0.0013375 0.00786561 0.0214814 0.0005 
380 1 0.00488166 0.0081028 0.0205 0.0005 
256 1 0.00139018 0.00959018 0.0205 0.0005 
75 1 0.00206878 0.0085665 0.0207496 0.00075 
887 1 0.00693896 0.00868454 0.0221373 0.0005 
1359 1 0.00333685 0.00873649 0.0205 0.0005 
588 1 0.00428222 0.00906402 0.0205 0.0005 
360 1 0.0066695 0.0141826 0.0205 0.0005 
154 1 0.00532107 0.0101751 0.02075 0.00075 
13 1 0.000499989 0.0100475 0.0205 0.0005 
879 1 0.0054118 0.0089523 0.0205 0.0005 
137 1 0.000950387 0.0109409 0.0205 0.0005 
44 1 0.00499361 0.0122148 0.0207499 0.00075 
1166 1 0.00570518 0.00888056 0.0222107 0.00075 
1234 1 0.00533731 0.0100556 0.0219941 0.0005 
323 1 0.00296176 0.0108469 0.0219999 0.002 
820 1 0.00144646 0.0121696 0.0205 0.0005 
713 1 0.00335813 0.0136381 0.0205 0.0005 
881 1 0.0005 0.0128341 0.0205 0.0005 
943 1 0.00372205 0.0127029 0.0205 0.0005 
673 1 0.00542319 0.0136519 0.0207498 0.00075 
174 1 0.00191558 0.0135065 0.0209999 0.001 
447 1 0.0060405 0.0115792 0.0205 0.0005 
508 1 0.000520944 0.0138339 0.0205 0.0005 
891 1 0.00629475 0.00942723 0.0204999 0.0005 
1190 1 0.0054433 0.0111388 0.0223505 0.0005 
911 1 0.00467034 0.0127482 0.0219587 0.0005 
35 1 0.00728745 0.0106355 0.0217467 0.0015 
2621 1 0.00701589 0.0122127 0.0205 0.0005 
1032 1 0.00571309 0.0119201 0.0217287 0.0005 
1085 1 0.000749979 0.012472 0.021796 0.00075 
742 1 0.000500053 0.0118341 0.0205 0.0005 
274 1 0.00717349 0.00894939 0.0205 0.0005 
427 1 0.00481582 0.00891811 0.021333 0.0005 
1407 1 0.000749988 0.00903021 0.021416 0.00075 
401 1 0.00691893 0.0133447 0.0220413 0.00125 
1617 1 0.00183127 0.00860327 0.0219763 0.0005 
2240 1 0.00225497 0.0132062 0.0224298 0.0005 
1492 1 0.000499618 0.00763699 0.0219762 0.0005 
870 1 0.00767601 0.00772758 0.0205 0.0005 
479 1 0.000524657 0.0138158 0.0215739 0.0005 
1070 1 0.00784442 0.00792021 0.0217236 0.00075 
3405 1 0.0148866 0.00825859 0.0205 0.0005 
3364 1 0.0158363 0.00775339 0.0205 0.0005 
3343 1 0.0137858 0.00921718 0.0218348 0.0005 
3288 1 0.0140334 0.00845204 0.0209858 0.0005 
1067 1 0.00809156 0.0136268 0.0205 0.0005 
209 1 0.013164 0.00769819 0.0205 0.0005 
872 1 0.0083267 0.0124151 0.02075 0.00075 
764 1 0.00984889 0.00744977 0.0214738 0.00125 
581 1 0.0119749 0.00789952 0.0218232 0.00075 
171 1 0.0128928 0.00890687 0.02075 0.00075 
636 1 0.0112608 0.00808789 0.0205 0.0005 
275 1 0.0131058 0.0103926 0.02075 0.00075 
46 1 0.00839821 0.0089361 0.0207497 0.00075 
556 1 0.0127819 0.011857 0.0207495 0.00075 
287 1 0.0103939 0.0115399 0.0204998 0.0005 
756 1 0.0110353 0.00993127 0.0215 0.0015 
686 1 0.00920231 0.00986428 0.0205 0.0005 
10 1 0.0153138 0.0103882 0.0205 0.0005 
569 1 0.0115527 0.0116957 0.0205 0.0005 
252 1 0.00960296 0.0122976 0.0205 0.0005 
772 1 0.0116044 0.0130572 0.0204999 0.0005 
709 1 0.00924863 0.0111066 0.0207499 0.00075 
1061 1 0.0108114 0.0124482 0.0204999 0.0005 
1118 1 0.00989336 0.0118342 0.0215359 0.0005 
968 1 0.0116958 0.0121161 0.0217505 0.00075 
1238 1 0.00963052 0.00890898 0.0205 0.0005 
1028 1 0.0127916 0.013357 0.0207499 0.00075 
1653 1 0.0133262 0.0112148 0.0216733 0.0005 
80 1 0.0151341 0.0117886 0.0210142 0.001 
810 1 0.00880438 0.00899955 0.022192 0.00075 
192 1 0.0143284 0.0103577 0.0216188 0.00075 
1883 1 0.0136444 0.0125245 0.0213865 0.0005 
1056 1 0.0157766 0.0126092 0.0221053 0.0005 
938 1 0.00918219 0.0101938 0.0222113 0.0005 
1257 1 0.00891246 0.011942 0.0217544 0.0005 
1225 1 0.0105895 0.0118331 0.0222579 0.0005 
714 1 0.0159198 0.0129583 0.0204999 0.0005 
3416 1 0.0143458 0.00931898 0.0205 0.0005 
1080 1 0.0128769 0.0131226 0.0222289 0.00075 
1922 1 0.0159745 0.00962229 0.0205 0.0005 
333 1 0.0232402 0.00709506 0.02075 0.00075 
109 1 0.0170083 0.00744787 0.0205 0.0005 
652 1 0.0166869 0.00857023 0.0223684 0.0005 
204 1 0.0234996 0.00868566 0.0205 0.0005 
57 1 0.019032 0.00739965 0.0214999 0.0015 
143 1 0.0220591 0.00761981 0.0205 0.0005 
577 1 0.0232422 0.00830701 0.0216652 0.00075 
452 1 0.0233795 0.00967957 0.0205 0.0005 
6 1 0.0217408 0.00899841 0.0209999 0.001 
190 1 0.0166981 0.00863678 0.02076 0.00075 
1846 1 0.0163857 0.0105605 0.0205 0.0005 
342 1 0.0168079 0.0138015 0.02075 0.00075 
319 1 0.0202684 0.00884829 0.0205 0.0005 
293 1 0.0186695 0.0124623 0.0217498 0.00175 
735 1 0.0203571 0.0108764 0.0214007 0.0005 
308 1 0.0192806 0.00987943 0.0210005 0.001 
49 1 0.0168972 0.0114205 0.0205 0.0005 
146 1 0.0177785 0.00920922 0.0205 0.0005 
578 1 0.0229997 0.0110434 0.021 0.001 
90 1 0.0175847 0.00931939 0.0217636 0.00075 
71 1 0.0206635 0.010216 0.0205 0.0005 
659 1 0.0176103 0.0104247 0.02075 0.00075 
967 1 0.0167993 0.0124161 0.0205 0.0005 
130 1 0.0202642 0.0134565 0.0205 0.0005 
41 1 0.0212599 0.0114456 0.0207499 0.00075 
231 1 0.0234982 0.0124557 0.0205 0.0005 
279 1 0.0235 0.00971262 0.0214921 0.0005 
693 1 0.0205007 0.0094101 0.0217365 0.0005 
725 1 0.022226 0.012593 0.0207499 0.00075 
697 1 0.0200569 0.0112024 0.0205 0.0005 
330 1 0.0222791 0.0140919 0.0207497 0.00075 
800 1 0.0205565 0.0124697 0.0205 0.0005 
538 1 0.0235 0.0135564 0.0205 0.0005 
812 1 0.021264 0.0134059 0.0205 0.0005 
910 1 0.0214696 0.0104849 0.0218827 0.00075 
1899 1 0.0164142 0.0127706 0.021352 0.0005 
1138 1 0.0212543 0.0122682 0.0220042 0.00075 
770 1 0.0232569 0.0130239 0.0213107 0.0005 
1517 1 0.0207562 0.0132076 0.0213383 0.0005 
1287 1 0.0235 0.0123396 0.0219982 0.0005 
737 1 0.00567431 0.0149946 0.0205 0.0005 
646 1 0.00241601 0.0148593 0.0205 0.0005 
521 1 0.00241404 0.0158622 0.0205 0.0005 
439 1 0.00710512 0.0157089 0.02125 0.00125 
196 1 0.00114105 0.0146929 0.0205 0.0005 
782 1 0.000503369 0.01485 0.0213563 0.0005 
70 1 0.000504279 0.01548 0.0205 0.0005 
888 1 0.00541379 0.0185838 0.0205 0.0005 
550 1 0.00288353 0.0167498 0.0205 0.0005 
529 1 0.00124964 0.0170097 0.0212497 0.00125 
1077 1 0.00674174 0.01829 0.0205 0.0005 
1004 1 0.00626103 0.019771 0.02075 0.00075 
688 1 0.000560489 0.0199949 0.0205 0.0005 
972 1 0.00569044 0.0172091 0.02075 0.00075 
1829 1 0.00715005 0.017591 0.0214215 0.0005 
1696 1 0.00591477 0.0171257 0.0219774 0.0005 
436 1 0.00691389 0.0172829 0.0205 0.0005 
3191 1 0.00267819 0.019527 0.0205 0.0005 
3402 1 0.000516497 0.0153972 0.0221936 0.0005 
1726 1 0.000500176 0.0203378 0.0214389 0.0005 
1884 1 0.00366769 0.019804 0.0209121 0.0005 
3441 1 0.00472679 0.020013 0.0205 0.0005 
1060 1 0.0068646 0.0171199 0.0222924 0.0005 
1293 1 0.00358249 0.0207448 0.0205 0.0005 
678 1 0.00181696 0.0209688 0.0209999 0.001 
3473 1 0.00592035 0.0206532 0.0217543 0.0005 
1859 1 0.00778379 0.0207014 0.0205 0.0005 
3017 1 0.00247925 0.0176524 0.0223628 0.0005 
188 1 0.0147301 0.0142078 0.0215114 0.0015 
59 1 0.0120333 0.014375 0.0205 0.0005 
62 1 0.0100285 0.0142885 0.0219999 0.002 
865 1 0.0130278 0.0145705 0.0205 0.0005 
695 1 0.00808883 0.0173636 0.0222266 0.00075 
269 1 0.0080965 0.0191494 0.0212491 0.00125 
734 1 0.0126416 0.0150534 0.0215962 0.00075 
974 1 0.0116098 0.0155131 0.0205 0.0005 
1 1 0.00831211 0.0172232 0.0207499 0.00075 
624 1 0.0137341 0.0157279 0.0223996 0.0005 
611 1 0.00873063 0.015953 0.0205 0.0005 
110 1 0.0135896 0.0155092 0.0205 0.0005 
2226 1 0.0126 0.0156526 0.0204999 0.0005 
877 1 0.0106623 0.0187378 0.0206991 0.0005 
1570 1 0.00946782 0.0199399 0.0205 0.0005 
54 1 0.00976808 0.0178383 0.0220935 0.001 
118 1 0.0142924 0.0169254 0.0212516 0.00125 
717 1 0.0116613 0.0184781 0.0204999 0.0005 
1232 1 0.0108194 0.0161256 0.0205001 0.0005 
934 1 0.0122037 0.0195794 0.0207499 0.00075 
1310 1 0.0127144 0.0170152 0.0205 0.0005 
1212 1 0.0148337 0.0194097 0.0205 0.0005 
1035 1 0.0108866 0.0171233 0.0205 0.0005 
1592 1 0.0109676 0.0196689 0.0205 0.0005 
1697 1 0.0103331 0.0204417 0.0204999 0.0005 
2033 1 0.0128154 0.019789 0.0218197 0.0005 
1264 1 0.0113196 0.0206049 0.0205 0.0005 
1164 1 0.0124431 0.0210591 0.0208066 0.00075 
982 1 0.0141023 0.0207969 0.0205 0.0005 
1448 1 0.0118167 0.0174903 0.0205 0.0005 
2386 1 0.0128608 0.0182311 0.02075 0.00075 
2420 1 0.0132985 0.0202006 0.0205 0.0005 
2431 1 0.0143012 0.0185592 0.0205 0.0005 
2287 1 0.0135644 0.0192364 0.0205 0.0005 
2500 1 0.0141549 0.0199381 0.0210096 0.0005 
2378 1 0.0138194 0.0191096 0.0214586 0.0005 
2447 1 0.0129424 0.0186051 0.0222003 0.00075 
2086 1 0.0126607 0.0162931 0.0212654 0.0005 
1311 1 0.0150196 0.0203922 0.0205 0.0005 
2645 1 0.0148351 0.0186563 0.0213654 0.0005 
1376 1 0.0096984 0.0189214 0.0205 0.0005 
2392 1 0.0110749 0.0179136 0.0210864 0.0005 
1757 1 0.0142734 0.0209336 0.0214828 0.0005 
2594 1 0.0133321 0.0206044 0.0215585 0.0005 
2897 1 0.00923044 0.0180357 0.0205 0.0005 
1338 1 0.0153215 0.0185369 0.0205 0.0005 
2978 1 0.00972465 0.0167186 0.0207497 0.00075 
2989 1 0.0114973 0.0188048 0.0214306 0.0005 
2598 1 0.0151055 0.0198911 0.0221733 0.001 
2289 1 0.0120163 0.0179757 0.0216382 0.0005 
3051 1 0.0118626 0.0164912 0.0205 0.0005 
3061 1 0.00868309 0.0164036 0.0216177 0.0005 
3029 1 0.0119217 0.0202364 0.021783 0.0005 
3080 1 0.0119747 0.0170139 0.0213672 0.0005 
2473 1 0.014197 0.018449 0.0221074 0.0005 
43 1 0.0154989 0.015752 0.0204998 0.0005 
3118 1 0.0108327 0.0165966 0.0213823 0.0005 
2294 1 0.0127372 0.0173483 0.0219381 0.0005 
3001 1 0.0125649 0.0209425 0.0221065 0.0005 
3168 1 0.0128224 0.0163985 0.0222473 0.0005 
3174 1 0.010216 0.0178651 0.0205 0.0005 
3188 1 0.0111842 0.0173729 0.0219201 0.0005 
3010 1 0.0112337 0.0209489 0.0216455 0.0005 
3215 1 0.0117028 0.0165733 0.0222241 0.0005 
1247 1 0.0104058 0.0197231 0.021894 0.001 
2511 1 0.0157136 0.0176171 0.0205 0.0005 
2460 1 0.0157962 0.0197622 0.0205 0.0005 
1772 1 0.0117216 0.0187929 0.0224049 0.0005 
941 1 0.0116996 0.0160407 0.0213777 0.0005 
189 1 0.0159481 0.0166452 0.0204999 0.0005 
2060 1 0.00903075 0.0201396 0.022382 0.0005 
2442 1 0.0136322 0.0196868 0.0224047 0.0005 
592 1 0.0179652 0.014202 0.0205 0.0005 
794 1 0.0166944 0.0143603 0.0218623 0.0005 
956 1 0.0189592 0.0143106 0.0204999 0.0005 
272 1 0.0234988 0.0145564 0.0205 0.0005 
2494 1 0.0185867 0.0148994 0.0221951 0.0005 
1236 1 0.0175084 0.0148514 0.0221758 0.0005 
1498 1 0.0180702 0.0146951 0.0213635 0.0005 
2117 1 0.0160221 0.0167953 0.0214858 0.0005 
944 1 0.0234963 0.014656 0.021495 0.0005 
523 1 0.0182559 0.0151637 0.0204999 0.0005 
639 1 0.0224569 0.0151871 0.0214577 0.0005 
350 1 0.0204577 0.0151786 0.0215001 0.0015 
78 1 0.0227396 0.0152266 0.0204996 0.0005 
139 1 0.0169013 0.0155699 0.0209998 0.001 
1193 1 0.0183608 0.0157165 0.0213297 0.0005 
345 1 0.0188939 0.0159337 0.0205 0.0005 
741 1 0.0179332 0.0168621 0.0214111 0.0005 
450 1 0.0180179 0.016438 0.0205 0.0005 
947 1 0.0173109 0.0184934 0.0204995 0.0005 
591 1 0.0223176 0.0163343 0.0208979 0.00075 
465 1 0.0180895 0.0178029 0.0204999 0.0005 
719 1 0.0190477 0.0171077 0.0209007 0.00075 
628 1 0.0235002 0.0174068 0.0204999 0.0005 
42 1 0.0224267 0.017996 0.0207497 0.00075 
747 1 0.0212047 0.0167409 0.0204999 0.0005 
813 1 0.0200539 0.0178883 0.0204999 0.0005 
787 1 0.0182688 0.0187865 0.0204999 0.0005 
492 1 0.0191407 0.0182959 0.0205 0.0005 
238 1 0.0234992 0.0186987 0.0205 0.0005 
1216 1 0.0195429 0.0187477 0.0215944 0.00075 
1230 1 0.0169672 0.0173194 0.0207625 0.00075 
566 1 0.0207762 0.018878 0.0207507 0.00075 
1333 1 0.021229 0.0177404 0.0204999 0.0005 
1091 1 0.0195613 0.0193507 0.0204998 0.0005 
1189 1 0.0235002 0.0155714 0.0210491 0.0005 
1427 1 0.0202132 0.0168993 0.0205 0.0005 
898 1 0.0183449 0.01912 0.0216731 0.0005 
1452 1 0.0203896 0.0203271 0.02075 0.00075 
1488 1 0.0185172 0.0199787 0.0207811 0.00075 
1124 1 0.0235001 0.0164069 0.0204999 0.0005 
1020 1 0.0225002 0.0201158 0.0214999 0.0015 
1401 1 0.0214837 0.0173816 0.0220893 0.001 
1298 1 0.0201702 0.0174013 0.0213655 0.0005 
1170 1 0.02325 0.0171812 0.0217127 0.00075 
1831 1 0.0173645 0.0193391 0.0215879 0.0005 
1184 1 0.0234982 0.0183772 0.0214468 0.0005 
1692 1 0.0194412 0.0199932 0.0216228 0.0005 
1828 1 0.0176859 0.0184072 0.0214218 0.0005 
1202 1 0.0207741 0.0209113 0.0221224 0.0005 
1984 1 0.0194157 0.0209423 0.0219372 0.0005 
1738 1 0.0173983 0.0194922 0.0205 0.0005 
1648 1 0.0168479 0.0209763 0.02125 0.00125 
2467 1 0.0163141 0.0184165 0.0205 0.0005 
1434 1 0.0232211 0.0157794 0.0222495 0.00075 
1796 1 0.0200335 0.0202877 0.0223727 0.0005 
1865 1 0.016538 0.0192758 0.0209614 0.0005 
1767 1 0.0207755 0.0187087 0.0220179 0.0005 
1929 1 0.0205685 0.0196608 0.0217926 0.0005 
2072 1 0.0235 0.0186291 0.0224146 0.0005 
2099 1 0.0196742 0.0169358 0.0220985 0.0005 
838 1 0.0163416 0.0182909 0.0220767 0.001 
2396 1 0.0169075 0.0169066 0.021942 0.0005 
2547 1 0.0188805 0.0163618 0.0218897 0.0005 
1941 1 0.0177679 0.0161285 0.0224136 0.00075 
2464 1 0.0201571 0.0180146 0.0224112 0.0005 
1094 1 0.00712138 0.0213279 0.0217296 0.00075 
896 1 0.00732318 0.0215891 0.0205029 0.0005 
700 1 0.0059441 0.0213969 0.02075 0.00075 
1416 1 0.00309284 0.0219165 0.0205 0.0005 
1578 1 0.00553405 0.0225521 0.0204999 0.0005 
482 1 0.000500029 0.0220794 0.0205 0.0005 
12 1 0.00212215 0.0226737 0.0207499 0.00075 
952 1 0.00577081 0.0252409 0.0205 0.0005 
1439 1 0.00657506 0.0243172 0.02075 0.00075 
831 1 0.00491419 0.0238257 0.0210005 0.001 
534 1 0.000750003 0.0232797 0.02075 0.00075 
1423 1 0.0014091 0.0264031 0.021333 0.0005 
1406 1 0.000500125 0.0254785 0.0204999 0.0005 
483 1 0.000500702 0.0264785 0.0204999 0.0005 
1483 1 0.00788758 0.0224174 0.0204995 0.0005 
1512 1 0.00286656 0.0259511 0.0205 0.0005 
752 1 0.00597322 0.0268864 0.0204999 0.0005 
1805 1 0.00357502 0.0249518 0.02075 0.00075 
1576 1 0.000499993 0.0244786 0.0205 0.0005 
1373 1 0.00679456 0.0259134 0.02075 0.00075 
1860 1 0.00375316 0.0227577 0.0205001 0.0005 
1625 1 0.000500053 0.0222948 0.021478 0.0005 
1455 1 0.00183159 0.0249856 0.0210005 0.001 
1942 1 0.00672973 0.0228142 0.0207506 0.00075 
1926 1 0.000501149 0.0250052 0.0216958 0.0005 
1520 1 0.00678145 0.0271337 0.0210342 0.0005 
1143 1 0.0028964 0.027191 0.0207524 0.00075 
2021 1 0.00786935 0.0265006 0.0205 0.0005 
980 1 0.0050715 0.0273186 0.0205 0.0005 
1825 1 0.00049999 0.0259723 0.0213695 0.0005 
2481 1 0.00756418 0.0274529 0.0205 0.0005 
2583 1 0.00477068 0.0252328 0.0205 0.0005 
1893 1 0.000502354 0.0256449 0.0224647 0.0005 
2706 1 0.000499945 0.0266103 0.0221394 0.0005 
348 1 0.00196812 0.026393 0.0205 0.0005 
775 1 0.00520984 0.0262263 0.0219295 0.00125 
1662 1 0.00319861 0.0235895 0.0212523 0.00075 
2168 1 0.00709787 0.0270537 0.0222407 0.00075 
2244 1 0.00127458 0.0271133 0.0204999 0.0005 
2852 1 0.00418342 0.0260423 0.0205 0.0005 
2884 1 0.00358863 0.0262819 0.0212673 0.0005 
2920 1 0.00613422 0.027794 0.0219469 0.0005 
1474 1 0.00570987 0.0225773 0.0214841 0.0005 
1449 1 0.0019474 0.0279645 0.0205 0.0005 
2833 1 0.00438842 0.0276723 0.021223 0.0005 
2427 1 0.0041112 0.0270397 0.0204999 0.0005 
1991 1 0.00620136 0.0240143 0.0221738 0.00075 
2813 1 0.00144971 0.0273967 0.0214428 0.0005 
1209 1 0.000499974 0.0271114 0.0212741 0.0005 
2922 1 0.00252556 0.0272006 0.0222058 0.00075 
3065 1 0.00518904 0.0280215 0.02171 0.0005 
1861 1 0.00316998 0.0254163 0.022425 0.001 
2449 1 0.00717498 0.0280419 0.0212177 0.0005 
3417 1 0.00422115 0.0217531 0.0210788 0.00075 
2207 1 0.00289926 0.0216567 0.0217898 0.0005 
1480 1 0.00599412 0.0281258 0.02075 0.00075 
2143 1 0.00754127 0.0234903 0.0214263 0.0005 
1702 1 0.000500006 0.0280215 0.0219626 0.0005 
2565 1 0.00779632 0.0244097 0.0205 0.0005 
2864 1 0.00378016 0.0280399 0.0222569 0.00075 
1451 1 0.00378798 0.0280318 0.0205 0.0005 
1285 1 0.000749972 0.0282194 0.0207523 0.00075 
946 1 0.00793627 0.025075 0.0221619 0.00125 
1650 1 0.00791397 0.0234168 0.0205 0.0005 
1103 1 0.00475984 0.0282687 0.0205 0.0005 
2998 1 0.00736986 0.0283358 0.0221534 0.0005 
2681 1 0.0152725 0.0213645 0.021948 0.0005 
1835 1 0.0106994 0.021531 0.0222584 0.0005 
1577 1 0.0136373 0.0216822 0.0205 0.0005 
1775 1 0.0143755 0.0218714 0.0218152 0.0005 
600 1 0.00915208 0.0214818 0.021265 0.00125 
1144 1 0.0103988 0.0227631 0.0215155 0.0005 
904 1 0.00863428 0.0249554 0.0205 0.0005 
1081 1 0.00870599 0.0259529 0.0205 0.0005 
1343 1 0.0111234 0.0218139 0.0207499 0.00075 
1394 1 0.00930633 0.0237114 0.0210019 0.001 
1698 1 0.00978625 0.0253758 0.02075 0.00075 
1342 1 0.0110756 0.0245506 0.021641 0.00075 
978 1 0.0107253 0.0262601 0.0205 0.0005 
1208 1 0.010581 0.0243949 0.0205 0.0005 
1350 1 0.0137901 0.023871 0.0204999 0.0005 
919 1 0.00948127 0.0276484 0.0217599 0.00175 
780 1 0.0135167 0.0256644 0.0204998 0.0005 
353 1 0.0147893 0.0238337 0.0205 0.0005 
1294 1 0.0130054 0.0231963 0.0204999 0.0005 
1180 1 0.0127936 0.022219 0.0205 0.0005 
1462 1 0.0118752 0.0254723 0.0213228 0.0005 
1467 1 0.0124826 0.0240486 0.0205 0.0005 
1552 1 0.0129905 0.0220696 0.0217706 0.00075 
1602 1 0.0117128 0.0260168 0.0205 0.0005 
1621 1 0.0130401 0.0251543 0.021649 0.00075 
861 1 0.014379 0.0249063 0.0209936 0.00075 
1643 1 0.0124051 0.0252623 0.0205 0.0005 
1539 1 0.0132375 0.0247043 0.0204999 0.0005 
1330 1 0.0135772 0.0240302 0.0214638 0.0005 
1192 1 0.0154017 0.025428 0.0204998 0.0005 
1614 1 0.0112214 0.0233106 0.02075 0.00075 
1693 1 0.0152093 0.0229262 0.0205 0.0005 
1618 1 0.0115811 0.0244813 0.0205 0.0005 
1221 1 0.0140693 0.0227527 0.0209833 0.00075 
1915 1 0.0144375 0.0260545 0.0205 0.0005 
1869 1 0.0110087 0.0253012 0.0205 0.0005 
2193 1 0.011288 0.0270867 0.0205 0.0005 
2263 1 0.0141252 0.025717 0.0219105 0.0005 
2270 1 0.012869 0.0271065 0.0212499 0.00125 
1753 1 0.0152616 0.0241089 0.0213776 0.0005 
862 1 0.0148399 0.0269703 0.0205 0.0005 
2004 1 0.0147441 0.0263258 0.0214124 0.0005 
1958 1 0.0146378 0.0272736 0.0217357 0.0005 
2243 1 0.0159749 0.0265099 0.0207499 0.00075 
1017 1 0.0150207 0.021617 0.0207499 0.00075 
2348 1 0.0144621 0.0236477 0.0217624 0.0005 
1955 1 0.0150493 0.0259 0.0222659 0.0005 
2603 1 0.0128922 0.0233019 0.0214904 0.0005 
2121 1 0.0108053 0.0257415 0.0213747 0.0005 
2261 1 0.0155556 0.027565 0.0212726 0.0005 
2026 1 0.0114243 0.0263444 0.0218779 0.0005 
2662 1 0.013768 0.0230154 0.0221676 0.0005 
2201 1 0.0122403 0.0240817 0.0214696 0.0005 
1931 1 0.0105829 0.0255097 0.0223318 0.0005 
2419 1 0.0155 0.026776 0.0218877 0.0005 
2097 1 0.00961172 0.0244545 0.0222685 0.0005 
2411 1 0.00964554 0.0254152 0.0219914 0.0005 
1682 1 0.0119315 0.0227695 0.0216248 0.0005 
1563 1 0.0156001 0.0244481 0.0205 0.0005 
1794 1 0.0157193 0.0227963 0.0219411 0.001 
1935 1 0.011368 0.0280835 0.0205 0.0005 
2463 1 0.0115753 0.0271674 0.0224265 0.0005 
1870 1 0.0145331 0.028135 0.0208345 0.00075 
1987 1 0.0151315 0.0281813 0.0219359 0.0005 
2393 1 0.011634 0.0282897 0.0216267 0.0005 
2550 1 0.00897367 0.0236815 0.0224642 0.0005 
2010 1 0.0138013 0.024431 0.0223769 0.0005 
3485 1 0.00802422 0.0228668 0.022457 0.00075 
1288 1 0.0160145 0.0223331 0.0205 0.0005 
1320 1 0.0192414 0.0212919 0.0207499 0.00075 
1398 1 0.0213465 0.0214079 0.0205 0.0005 
1598 1 0.0201479 0.0215307 0.0215942 0.0005 
1963 1 0.018856 0.0219783 0.0217408 0.0005 
144 1 0.0162911 0.0251257 0.0217727 0.001 
1881 1 0.0167058 0.0238474 0.0224391 0.0005 
1105 1 0.0203928 0.0217097 0.0205 0.0005 
1460 1 0.0211394 0.0215812 0.0214749 0.0005 
1437 1 0.0234993 0.0220388 0.0215075 0.0005 
1768 1 0.0162898 0.0276933 0.0204999 0.0005 
957 1 0.0234929 0.0219779 0.0205 0.0005 
1837 1 0.0164083 0.02656 0.0222458 0.0005 
1219 1 0.0221829 0.0225482 0.0209999 0.001 
152 1 0.0202155 0.0248557 0.0204999 0.0005 
1292 1 0.016596 0.0237315 0.02075 0.00075 
512 1 0.0194562 0.0257481 0.0205 0.0005 
1048 1 0.0181954 0.0223666 0.0207499 0.00075 
1415 1 0.0214791 0.023778 0.0205 0.0005 
1087 1 0.0235 0.0260384 0.0205 0.0005 
1176 1 0.0182532 0.0253533 0.0207499 0.00075 
1269 1 0.0232502 0.0239122 0.02075 0.00075 
1507 1 0.0234837 0.0231285 0.0217039 0.0005 
1574 1 0.0235001 0.0270398 0.0205 0.0005 
1472 1 0.0229876 0.0252518 0.0213716 0.00075 
1590 1 0.0219767 0.0254855 0.0204999 0.0005 
1634 1 0.0180902 0.0238626 0.02075 0.00075 
908 1 0.0221795 0.0245064 0.0204999 0.0005 
1646 1 0.0169867 0.022567 0.0205 0.0005 
1927 1 0.0170106 0.0258564 0.0204999 0.0005 
1897 1 0.0174712 0.02303 0.0218836 0.00075 
1370 1 0.022424 0.0265707 0.0209293 0.00075 
1978 1 0.0170752 0.0248586 0.0205 0.0005 
1514 1 0.0199924 0.0232393 0.0212499 0.00125 
1925 1 0.0212097 0.024749 0.0204999 0.0005 
1527 1 0.0178779 0.0244624 0.0221088 0.00075 
1106 1 0.0177586 0.0272006 0.0213342 0.00125 
1323 1 0.0192235 0.0267312 0.0204999 0.0005 
1267 1 0.0208313 0.0259106 0.02137 0.001 
1910 1 0.0193541 0.0264751 0.0214576 0.0005 
2162 1 0.0212273 0.0223838 0.0221473 0.0005 
3251 1 0.0192415 0.0246305 0.0204998 0.0005 
1974 1 0.0234994 0.0271525 0.0214935 0.0005 
3363 1 0.0235001 0.0262494 0.0219226 0.0005 
3370 1 0.0194672 0.0252274 0.0213557 0.0005 
3378 1 0.018653 0.025492 0.021926 0.0005 
1329 1 0.0231927 0.0279914 0.0205 0.0005 
3335 1 0.0226873 0.0258861 0.0224071 0.0005 
1015 1 0.0215252 0.0273258 0.0205 0.0005 
1044 1 0.0201122 0.028039 0.0212499 0.00125 
2065 1 0.0185908 0.0234499 0.022276 0.0005 
3340 1 0.0196049 0.0258992 0.0222355 0.0005 
1812 1 0.0235 0.0281509 0.0214381 0.0005 
2325 1 0.0190448 0.0267078 0.0224164 0.0005 
138 1 0.00778766 0.0284276 0.0205 0.0005 
162 1 0.000515679 0.0316592 0.0205 0.0005 
259 1 0.00357384 0.0313307 0.0205 0.0005 
522 1 0.0015421 0.033302 0.0207498 0.00075 
337 1 0.00292114 0.0296363 0.0207499 0.00075 
638 1 0.00524481 0.032678 0.0207598 0.00075 
506 1 0.000499919 0.0335376 0.0213984 0.0005 
1084 1 0.00150209 0.0301223 0.02075 0.00075 
1355 1 0.00303988 0.032848 0.0205 0.0005 
412 1 0.00220883 0.0317035 0.0209998 0.001 
1607 1 0.00189787 0.0289633 0.0205 0.0005 
1290 1 0.000500005 0.0294182 0.0205 0.0005 
1761 1 0.00654902 0.03383 0.0204999 0.0005 
1760 1 0.00403937 0.032882 0.0204998 0.0005 
1611 1 0.00523498 0.0339006 0.0204999 0.0005 
2278 1 0.00284646 0.028414 0.0204999 0.0005 
2306 1 0.00483306 0.0312032 0.02075 0.00075 
2343 1 0.00544064 0.0301368 0.0205 0.0005 
2387 1 0.00628222 0.0315946 0.0207497 0.00075 
2407 1 0.00389884 0.0303845 0.0205 0.0005 
2421 1 0.00646065 0.0328076 0.0204998 0.0005 
672 1 0.00767419 0.0344527 0.0207605 0.00075 
2537 1 0.00411668 0.0293707 0.0204999 0.0005 
1872 1 0.00698455 0.0297899 0.0212497 0.00125 
1792 1 0.00426332 0.0307969 0.022082 0.00075 
2484 1 0.00546394 0.0305708 0.0216243 0.0005 
2573 1 0.00507628 0.0291921 0.0212807 0.00075 
1993 1 0.00200713 0.0284954 0.0216539 0.00075 
2455 1 0.00725138 0.0318623 0.0214922 0.0005 
2622 1 0.00622231 0.0312075 0.0219367 0.0005 
1291 1 0.000749946 0.0323543 0.0217142 0.00075 
2548 1 0.00321099 0.0306625 0.021402 0.0005 
2570 1 0.0054467 0.0318242 0.0216501 0.0005 
897 1 0.000499872 0.032659 0.0204999 0.0005 
1168 1 0.003853 0.0320952 0.0214528 0.00075 
1136 1 0.000749967 0.0308573 0.0218222 0.00075 
2381 1 0.00384121 0.0287284 0.0212154 0.0005 
2530 1 0.00398125 0.0297898 0.0213976 0.0005 
2154 1 0.000750162 0.0293206 0.0217707 0.00075 
535 1 0.00151419 0.0346498 0.0205 0.0005 
2604 1 0.0065513 0.0333147 0.0221722 0.00125 
2371 1 0.00195702 0.0305487 0.0219233 0.0005 
2660 1 0.00513746 0.0299266 0.022316 0.0005 
2337 1 0.00730383 0.03227 0.0205 0.0005 
2456 1 0.00717181 0.031215 0.02225 0.0005 
2628 1 0.00188448 0.0328274 0.0219411 0.0005 
2874 1 0.00774223 0.0345937 0.0220834 0.0005 
835 1 0.00737565 0.0332673 0.0205 0.0005 
2759 1 0.00240712 0.0296565 0.0218891 0.0005 
2152 1 0.000502145 0.0340037 0.0205 0.0005 
2631 1 0.00461486 0.0289572 0.0224184 0.0005 
249 1 0.00347647 0.0347532 0.0220589 0.002 
1529 1 0.00594579 0.034867 0.0208506 0.00075 
1281 1 0.000751189 0.0347262 0.0216922 0.00075 
2937 1 0.00691955 0.0349376 0.021631 0.0005 
316 1 0.000499951 0.0350043 0.0204999 0.0005 
2840 1 0.00632883 0.0350277 0.0224518 0.0005 
2626 1 0.00537146 0.0312332 0.0224613 0.0005 
2493 1 0.00891122 0.0344734 0.0210073 0.0005 
2301 1 0.0129756 0.0289307 0.0220624 0.00075 
505 1 0.00845402 0.0292039 0.0205 0.0005 
886 1 0.00852426 0.0302014 0.0205 0.0005 
1249 1 0.013032 0.0319817 0.02075 0.00075 
1154 1 0.0107972 0.0318729 0.0205 0.0005 
609 1 0.0118096 0.0320553 0.0204999 0.0005 
1134 1 0.00812096 0.0313578 0.0207498 0.00075 
1340 1 0.0113409 0.0329383 0.0204999 0.0005 
1678 1 0.0123738 0.0330145 0.0205 0.0005 
1703 1 0.0105389 0.0309068 0.0205 0.0005 
1095 1 0.0133708 0.0331585 0.0204999 0.0005 
1815 1 0.00957583 0.0304521 0.0204999 0.0005 
1348 1 0.0131109 0.029865 0.0205 0.0005 
2043 1 0.0108352 0.0289297 0.0205 0.0005 
1867 1 0.0082582 0.0327545 0.0212795 0.00075 
1793 1 0.0146295 0.0293257 0.0219621 0.00075 
2242 1 0.0119289 0.0306463 0.0209999 0.001 
2245 1 0.0102054 0.0303648 0.0215764 0.00075 
2266 1 0.0134156 0.0285919 0.0205 0.0005 
1954 1 0.0107142 0.0299223 0.0204999 0.0005 
1762 1 0.00903114 0.0307015 0.0213004 0.0005 
640 1 0.00958649 0.0316767 0.0207498 0.00075 
2323 1 0.0127534 0.033945 0.0205 0.0005 
2362 1 0.0144755 0.029338 0.0205 0.0005 
2347 1 0.0117584 0.0338468 0.0205 0.0005 
1361 1 0.0156298 0.0296961 0.0208191 0.00075 
2202 1 0.014231 0.0307318 0.0209997 0.001 
2451 1 0.0122418 0.0289416 0.02075 0.00075 
1083 1 0.0149188 0.0328582 0.0212586 0.00125 
2305 1 0.0155602 0.0304994 0.0217741 0.0005 
2225 1 0.00981666 0.0294818 0.0204999 0.0005 
2408 1 0.0134802 0.033853 0.0212109 0.0005 
2304 1 0.00999157 0.0333613 0.0209999 0.001 
2574 1 0.0136903 0.0293349 0.0211191 0.0005 
2404 1 0.0126541 0.0330639 0.0217175 0.00075 
2390 1 0.00892765 0.0318355 0.0218001 0.0005 
2252 1 0.0119402 0.0320631 0.0214919 0.0005 
2577 1 0.010973 0.0322952 0.0213891 0.0005 
2505 1 0.0131002 0.0301443 0.0217907 0.0005 