ITEM: TIMESTEP
140000
ITEM: NUMBER OF ATOMS
1350
ITEM: BOX BOUNDS mm mm mm
-2.4e-06 0.0240024
-7.8e-06 0.0780078
-3e-06 0.030003
ITEM: ATOMS id type x y z radius 
324 1 0.00711404 0.00397966 0.0220574 0.002 
291 1 0.00266801 0.0015 0.0215014 0.0015 
368 1 0.000508085 0.000499812 0.0204998 0.0005 
784 1 0.0063681 0.00158735 0.02075 0.00075 
32 1 0.00560254 0.000504502 0.0205071 0.0005 
241 1 0.00436186 0.00195604 0.0205133 0.0005 
815 1 0.000527266 0.00158173 0.0205 0.0005 
448 1 0.00342277 0.00324289 0.0205076 0.0005 
300 1 0.000525533 0.000539714 0.0220822 0.0005 
442 1 0.00099994 0.00329519 0.0209985 0.001 
816 1 0.00447644 0.00295641 0.0205 0.0005 
710 1 0.00412435 0.000512895 0.0205 0.0005 
527 1 0.000537737 0.00463201 0.0204998 0.0005 
256 1 0.00050197 0.00560067 0.0207438 0.0005 
870 1 0.00670421 0.00605322 0.0205 0.0005 
100 1 0.00546436 0.00169805 0.0216057 0.0005 
153 1 0.00684116 0.000964272 0.0217398 0.0005 
486 1 0.00310907 0.00537316 0.0223385 0.00225 
722 1 0.00116911 0.00632637 0.0205 0.0005 
864 1 0.00557826 0.000652527 0.0215078 0.0005 
503 1 0.000529198 0.00659778 0.021366 0.0005 
561 1 0.00786457 0.00167585 0.0207498 0.00075 
121 1 0.00748554 0.00667826 0.020535 0.0005 
587 1 0.000712496 0.00685962 0.022462 0.0005 
842 1 0.00655312 0.00645348 0.0220581 0.0005 
501 1 0.00754726 0.000500291 0.0223959 0.0005 
228 1 0.00819086 0.00571082 0.0205 0.0005 
392 1 0.00838183 0.00692055 0.0217989 0.001 
490 1 0.00907191 0.00332796 0.0205 0.0005 
199 1 0.0124325 0.00153719 0.0205 0.0005 
395 1 0.0110054 0.00271279 0.020506 0.0005 
474 1 0.0143765 0.000905414 0.0209198 0.00075 
282 1 0.0114305 0.00152128 0.020501 0.0005 
590 1 0.0112514 0.000500205 0.0205002 0.0005 
176 1 0.0132631 0.000500248 0.0205 0.0005 
289 1 0.0122615 0.000548003 0.0205 0.0005 
362 1 0.0102512 0.000500853 0.0205 0.0005 
370 1 0.00905158 0.000750831 0.0207579 0.00075 
783 1 0.0100074 0.00286073 0.0205002 0.0005 
51 1 0.0134302 0.00160614 0.0205 0.0005 
233 1 0.010302 0.00174076 0.021001 0.00075 
217 1 0.0104314 0.00378783 0.0205 0.0005 
636 1 0.0116695 0.00552397 0.0205 0.0005 
171 1 0.0111923 0.00693277 0.0207532 0.00075 
549 1 0.0102079 0.00314677 0.0214378 0.0005 
126 1 0.0121862 0.00385119 0.0216676 0.0015 
307 1 0.00922021 0.00212526 0.0205001 0.0005 
676 1 0.0113014 0.000749999 0.0217243 0.00075 
209 1 0.0133195 0.00501245 0.0204992 0.0005 
730 1 0.00920336 0.00162673 0.0216368 0.0005 
764 1 0.00994799 0.00539684 0.0212492 0.00125 
311 1 0.0128998 0.00636156 0.020999 0.001 
192 1 0.0144663 0.00546607 0.0207582 0.00075 
763 1 0.00969632 0.00245328 0.021945 0.0005 
66 1 0.0137917 0.00413246 0.0204992 0.0005 
61 1 0.0151032 0.0047123 0.0215253 0.0005 
108 1 0.0147255 0.00285932 0.0212509 0.00125 
1195 1 0.00819783 0.00158435 0.0219513 0.0005 
581 1 0.0116167 0.00603984 0.0221418 0.00075 
89 1 0.0100539 0.000502381 0.0216837 0.0005 
954 1 0.00838929 0.00050888 0.021856 0.0005 
155 1 0.0130881 0.00135233 0.0223916 0.00125 
178 1 0.0158622 0.000762343 0.0207575 0.00075 
364 1 0.010719 0.00193196 0.0224413 0.00075 
161 1 0.0232478 0.000750808 0.02075 0.00075 
159 1 0.0224685 0.00319613 0.0205072 0.0005 
204 1 0.0234964 0.00357251 0.0205 0.0005 
219 1 0.0214729 0.00132357 0.0209999 0.001 
333 1 0.0232506 0.00451245 0.0220376 0.00075 
142 1 0.0232499 0.00225083 0.02075 0.00075 
200 1 0.0213764 0.00385127 0.02075 0.00075 
340 1 0.0225389 0.0047988 0.0207495 0.00075 
452 1 0.0234996 0.00556133 0.0205 0.0005 
518 1 0.0203656 0.0027336 0.02075 0.00075 
185 1 0.0168715 0.00414169 0.0212499 0.00125 
31 1 0.0178448 0.0015269 0.0214999 0.0015 
123 1 0.0229293 0.00101049 0.022464 0.001 
273 1 0.0223198 0.00303117 0.0220181 0.001 
113 1 0.0184792 0.0036785 0.0205 0.0005 
544 1 0.0190291 0.00491988 0.0212475 0.001 
577 1 0.023218 0.00630384 0.0216544 0.00075 
652 1 0.0179697 0.00633549 0.0220059 0.0005 
290 1 0.0193497 0.00325646 0.0217428 0.00075 
281 1 0.0208554 0.00413078 0.0221726 0.00075 
190 1 0.0179311 0.00631754 0.02075 0.00075 
57 1 0.0208457 0.00667008 0.0215013 0.0015 
143 1 0.0228358 0.00668395 0.0205 0.0005 
853 1 0.0188567 0.00693155 0.0219955 0.0005 
588 1 0.00320315 0.00785577 0.0205 0.0005 
274 1 0.00680368 0.00746048 0.0205095 0.0005 
360 1 0.00557105 0.0127178 0.0205231 0.0005 
64 1 0.00542079 0.0072746 0.0210631 0.001 
380 1 0.00517424 0.00993256 0.0205159 0.0005 
75 1 0.00152359 0.00750534 0.02075 0.00075 
154 1 0.00642534 0.0116916 0.0207503 0.00075 
427 1 0.00516039 0.0114658 0.0208415 0.0005 
13 1 0.000555114 0.0101533 0.0205 0.0005 
390 1 0.000527307 0.00792689 0.0214722 0.0005 
879 1 0.00641112 0.00839511 0.0205048 0.0005 
137 1 0.000594698 0.011278 0.0205 0.0005 
1070 1 0.00788705 0.00860006 0.0216269 0.00075 
44 1 0.00465716 0.0138829 0.020778 0.00075 
401 1 0.0069377 0.0132126 0.0220511 0.00125 
1166 1 0.00651242 0.00960661 0.0208497 0.00075 
1104 1 0.00633838 0.00900964 0.0221377 0.0005 
1234 1 0.00493391 0.012166 0.0215267 0.0005 
323 1 0.00248053 0.0124867 0.0220246 0.002 
887 1 0.00714555 0.00767459 0.0222975 0.0005 
1314 1 0.00625051 0.0105864 0.0222048 0.00075 
820 1 0.0005643 0.0135256 0.0205 0.0005 
1067 1 0.00730068 0.0139361 0.0204998 0.0005 
891 1 0.00795205 0.00793953 0.0205298 0.0005 
35 1 0.0083782 0.010792 0.0214996 0.0015 
275 1 0.0125566 0.0107153 0.0207502 0.00075 
46 1 0.00976165 0.00753217 0.02075 0.00075 
80 1 0.015647 0.0105798 0.021 0.001 
556 1 0.0120565 0.0121301 0.0207592 0.00075 
287 1 0.0107556 0.0119077 0.0205031 0.0005 
714 1 0.0149684 0.0125607 0.0205001 0.0005 
865 1 0.0136998 0.0113606 0.0205 0.0005 
756 1 0.0109766 0.00929342 0.021499 0.0015 
318 1 0.0127326 0.00791621 0.0217834 0.00075 
686 1 0.0101593 0.0108659 0.0205118 0.0005 
975 1 0.0144051 0.0115743 0.0214765 0.0005 
189 1 0.0159649 0.013814 0.0205 0.0005 
10 1 0.0146709 0.0116058 0.0205 0.0005 
569 1 0.0108653 0.0124469 0.0214819 0.0005 
447 1 0.00912303 0.00882587 0.0205 0.0005 
252 1 0.00975186 0.0118672 0.0205041 0.0005 
571 1 0.0129445 0.010585 0.0225138 0.001 
33 1 0.0154691 0.00775425 0.0219999 0.002 
872 1 0.00845204 0.0133732 0.020749 0.00075 
188 1 0.0136029 0.0135413 0.0215852 0.0015 
772 1 0.0111531 0.0129556 0.0205005 0.0005 
709 1 0.0099355 0.0130837 0.0207516 0.00075 
1061 1 0.0112317 0.0134107 0.0213924 0.0005 
342 1 0.0153909 0.0117822 0.0222643 0.00075 
110 1 0.0119244 0.0135916 0.0204997 0.0005 
1028 1 0.011621 0.0117121 0.022237 0.00075 
1118 1 0.0105173 0.0111218 0.0222251 0.0005 
319 1 0.0214478 0.00842521 0.0205 0.0005 
6 1 0.022985 0.00849206 0.0209999 0.001 
293 1 0.0183521 0.010689 0.0217499 0.00175 
735 1 0.0206435 0.0109536 0.0218566 0.0005 
308 1 0.0212885 0.00982559 0.0210132 0.001 
49 1 0.0174394 0.00809774 0.0204999 0.0005 
146 1 0.0203682 0.00838023 0.0205 0.0005 
109 1 0.0193109 0.00801016 0.0205 0.0005 
578 1 0.0229687 0.0109515 0.0209999 0.001 
139 1 0.0163903 0.0124643 0.0209999 0.001 
90 1 0.0198963 0.00872391 0.0216279 0.00075 
71 1 0.020204 0.0110348 0.0205 0.0005 
659 1 0.0183672 0.00813079 0.0213364 0.00075 
967 1 0.0170362 0.00916076 0.0205 0.0005 
130 1 0.0208207 0.0126692 0.0204999 0.0005 
41 1 0.0213286 0.0115551 0.0207502 0.00075 
231 1 0.0235008 0.0122764 0.0204998 0.0005 
279 1 0.0234867 0.00973369 0.0217376 0.0005 
693 1 0.0219227 0.00850707 0.0220589 0.0005 
725 1 0.023034 0.0123515 0.0220552 0.00075 
697 1 0.019959 0.0121618 0.0205 0.0005 
330 1 0.022342 0.0126689 0.02075 0.00075 
78 1 0.0229072 0.0137667 0.0205 0.0005 
741 1 0.0174766 0.0138214 0.0221062 0.0005 
800 1 0.0189205 0.0126239 0.0205206 0.0005 
538 1 0.0234937 0.0130806 0.021123 0.0005 
1236 1 0.0183401 0.0133503 0.0217894 0.0005 
812 1 0.0228608 0.0136115 0.0220033 0.0005 
944 1 0.0234872 0.0140537 0.0213598 0.0005 
439 1 0.00599974 0.0153987 0.0212624 0.00125 
174 1 0.00100271 0.0155612 0.0210123 0.001 
737 1 0.00443301 0.0155961 0.0205004 0.0005 
713 1 0.00202774 0.0145925 0.0205 0.0005 
646 1 0.00255715 0.0154488 0.0205 0.0005 
611 1 0.00775632 0.0148263 0.0205001 0.0005 
70 1 0.000505164 0.0168883 0.0205037 0.0005 
508 1 0.00264412 0.0164474 0.020502 0.0005 
881 1 0.000508924 0.0144882 0.0219906 0.0005 
695 1 0.00747241 0.0168257 0.02075 0.00075 
550 1 0.000552252 0.019342 0.0204998 0.0005 
1 1 0.00607308 0.0176697 0.0207498 0.00075 
529 1 0.00159181 0.0180161 0.0212994 0.00125 
943 1 0.00362286 0.0150512 0.020725 0.0005 
786 1 0.00661302 0.0169936 0.0216513 0.0005 
678 1 0.00103344 0.0208253 0.0210147 0.001 
269 1 0.00362308 0.0196843 0.0212494 0.00125 
19 1 0.00397241 0.0172182 0.0214621 0.00125 
1077 1 0.00568711 0.0191025 0.0214021 0.0005 
436 1 0.00478606 0.0186843 0.0220921 0.0005 
673 1 0.00406636 0.0147384 0.0218585 0.00075 
54 1 0.00586153 0.0205934 0.0209999 0.001 
877 1 0.00393096 0.0209649 0.0224601 0.0005 
221 1 0.00838418 0.0190671 0.0214999 0.0015 
62 1 0.00963074 0.0155162 0.0220038 0.002 
43 1 0.0157521 0.0147949 0.0205 0.0005 
59 1 0.0111946 0.0142748 0.0204999 0.0005 
118 1 0.0128922 0.0161905 0.0212499 0.00125 
198 1 0.0138973 0.0184795 0.0212499 0.00125 
974 1 0.011736 0.014282 0.0213793 0.0005 
582 1 0.0156878 0.0188865 0.0220982 0.00075 
717 1 0.0123305 0.0203182 0.0205 0.0005 
1232 1 0.00892632 0.0173854 0.0205001 0.0005 
934 1 0.00953432 0.0209323 0.02075 0.00075 
1310 1 0.0101094 0.0188594 0.0205028 0.0005 
1212 1 0.0109507 0.0202106 0.0210913 0.0005 
1338 1 0.0113185 0.0192609 0.0213406 0.0005 
260 1 0.0163124 0.0169786 0.0209999 0.001 
450 1 0.0169801 0.0146841 0.0205 0.0005 
345 1 0.017881 0.0160631 0.0205 0.0005 
592 1 0.0178694 0.0142099 0.0205 0.0005 
591 1 0.0228559 0.015621 0.0207638 0.00075 
465 1 0.017261 0.0181284 0.0205 0.0005 
350 1 0.0210839 0.0143806 0.0215004 0.0015 
719 1 0.0184047 0.0174068 0.02075 0.00075 
272 1 0.023498 0.0145762 0.0205026 0.0005 
628 1 0.0235002 0.0166589 0.0204999 0.0005 
42 1 0.0231177 0.0180273 0.02075 0.00075 
747 1 0.0225416 0.0169442 0.0205011 0.0005 
523 1 0.0183331 0.0155426 0.0212249 0.0005 
813 1 0.021716 0.0182367 0.0205 0.0005 
787 1 0.0178572 0.0174229 0.0218752 0.0005 
492 1 0.0228963 0.0192641 0.0207508 0.0005 
956 1 0.0191605 0.0149886 0.0214662 0.0005 
238 1 0.0234665 0.0200552 0.0205 0.0005 
947 1 0.0178438 0.0195387 0.02144 0.0005 
1216 1 0.017175 0.0165645 0.022476 0.00075 
1230 1 0.017103 0.0151074 0.0217232 0.00075 
566 1 0.0224443 0.0207961 0.0207677 0.00075 
1315 1 0.0168691 0.0206076 0.022446 0.00075 
837 1 0.0180773 0.0194734 0.0224241 0.0005 
1333 1 0.0224167 0.0166997 0.0221834 0.0005 
896 1 0.00217142 0.023386 0.0205113 0.0005 
482 1 0.000533701 0.0227809 0.0205 0.0005 
12 1 0.000779866 0.0244719 0.0207524 0.00075 
700 1 0.0016258 0.023582 0.0216502 0.00075 
600 1 0.00366646 0.0241091 0.0212513 0.00125 
1004 1 0.00286432 0.0223111 0.02075 0.00075 
180 1 0.00680427 0.0233403 0.0219998 0.002 
36 1 0.00288447 0.0272337 0.0217499 0.00175 
688 1 0.000505866 0.0242223 0.0219674 0.0005 
1293 1 0.002619 0.0215385 0.0220565 0.0005 
952 1 0.00615802 0.0280669 0.0205 0.0005 
1144 1 0.00500206 0.0277587 0.0223502 0.0005 
624 1 0.00886438 0.022934 0.0205 0.0005 
152 1 0.0130001 0.0265657 0.0205 0.0005 
780 1 0.0125162 0.0247587 0.0205651 0.0005 
353 1 0.0136871 0.0256635 0.0205 0.0005 
144 1 0.0154576 0.0233621 0.0209999 0.001 
978 1 0.00885625 0.0253758 0.0205323 0.0005 
1233 1 0.0120187 0.0258931 0.0214148 0.001 
915 1 0.0129565 0.0241409 0.0217702 0.00075 
1264 1 0.00973967 0.0230399 0.0213677 0.0005 
1292 1 0.0149428 0.0270996 0.0215201 0.00075 
1294 1 0.0105603 0.0238885 0.0220907 0.0005 
512 1 0.0209514 0.0263889 0.0205175 0.0005 
862 1 0.0196597 0.0269951 0.0205116 0.0005 
1020 1 0.0224835 0.0229212 0.0215057 0.0015 
982 1 0.0181997 0.0257193 0.0205 0.0005 
957 1 0.0232671 0.0280004 0.0205923 0.0005 
1113 1 0.0191856 0.0275487 0.0217431 0.00075 
1288 1 0.0193081 0.0227697 0.021648 0.0005 
1105 1 0.0207472 0.0239059 0.0213446 0.0005 
1311 1 0.0175917 0.023526 0.0214305 0.0005 
1320 1 0.0182499 0.0213175 0.0221859 0.00075 
162 1 0.000525663 0.0310441 0.0205 0.0005 
249 1 0.00263761 0.034554 0.022006 0.002 
259 1 0.00140246 0.0316085 0.0205 0.0005 
534 1 0.00338453 0.0294953 0.0207526 0.00075 
522 1 0.000755939 0.0327099 0.0207513 0.00075 
672 1 0.00521969 0.03298 0.0208444 0.00075 
348 1 0.00647676 0.0332984 0.0205465 0.0005 
831 1 0.00510332 0.0292266 0.021004 0.001 
535 1 0.000635413 0.0348638 0.0205 0.0005 
337 1 0.0040197 0.031968 0.020936 0.00075 
1081 1 0.00734682 0.0282704 0.0205292 0.0005 
897 1 0.000499768 0.0339387 0.0208659 0.0005 
980 1 0.00709562 0.0322128 0.0205041 0.0005 
844 1 0.00575667 0.0342559 0.0205441 0.0005 
991 1 0.0066666 0.0307894 0.0214594 0.00125 
638 1 0.00599031 0.0332804 0.0221547 0.00075 
925 1 0.0077517 0.0340067 0.0215181 0.00125 
483 1 0.000657386 0.0289872 0.022086 0.0005 
505 1 0.00871772 0.0315935 0.0206909 0.0005 
261 1 0.0156041 0.0301264 0.0205 0.0005 
886 1 0.0115608 0.0319975 0.0205 0.0005 
904 1 0.00825542 0.0289789 0.0205167 0.0005 
138 1 0.0101288 0.0317361 0.0205 0.0005 
919 1 0.00983092 0.0297168 0.0219769 0.00175 
861 1 0.0136419 0.0302533 0.02075 0.00075 
471 1 0.0102104 0.0336063 0.0212858 0.00125 
984 1 0.0149263 0.0324519 0.0214999 0.0015 
1103 1 0.00820963 0.0324435 0.0205 0.0005 
1192 1 0.0129796 0.0311349 0.0213865 0.0005 
557 1 0.0214026 0.029442 0.0212499 0.00125 
1015 1 0.0235001 0.0299699 0.0205236 0.0005 
698 1 0.0188828 0.0286553 0.020753 0.00075 
609 1 0.0179975 0.0324744 0.0204991 0.0005 
990 1 0.0215595 0.0350584 0.0209999 0.001 
304 1 0.0234729 0.0309956 0.0205086 0.0005 
1083 1 0.0177206 0.0302085 0.0212499 0.00125 
1145 1 0.0182059 0.0350541 0.0208106 0.00075 
909 1 0.0233354 0.0309859 0.0218876 0.0005 
1120 1 0.020685 0.0315264 0.0209628 0.00075 
916 1 0.0184458 0.0288324 0.0221122 0.0005 
1307 1 0.0206834 0.0329793 0.0211357 0.0005 
1153 1 0.0187395 0.0333638 0.0214507 0.001 
1142 1 0.0207261 0.032216 0.022005 0.0005 
1335 1 0.0186271 0.0315923 0.0220281 0.0005 
60 1 0.00608873 0.03651 0.0217499 0.00175 
451 1 0.000754488 0.0389956 0.02075 0.00075 
433 1 0.00264312 0.0414581 0.0205 0.0005 
386 1 0.00169461 0.0405314 0.0205 0.0005 
366 1 0.00117148 0.0359156 0.0205004 0.0005 
680 1 0.00263456 0.0373805 0.02075 0.00075 
519 1 0.000579214 0.0402122 0.0205 0.0005 
668 1 0.00195277 0.0422183 0.0205 0.0005 
247 1 0.00230816 0.0394257 0.02075 0.00075 
733 1 0.00328085 0.0403536 0.0205 0.0005 
1108 1 0.000869316 0.0372479 0.02075 0.00075 
615 1 0.00663713 0.0383482 0.0205003 0.0005 
554 1 0.000953668 0.0396692 0.022441 0.0005 
1186 1 0.00479584 0.0422599 0.0206134 0.0005 
316 1 0.000505653 0.0356021 0.0211777 0.0005 
584 1 0.00631296 0.0418261 0.0207551 0.00075 
1276 1 0.00414043 0.0394494 0.0219329 0.001 
1177 1 0.00604208 0.0406122 0.0223426 0.00125 
570 1 0.00771538 0.0421506 0.0205 0.0005 
640 1 0.0117255 0.0359384 0.02075 0.00075 
91 1 0.00917147 0.0369582 0.0207581 0.00075 
309 1 0.00870517 0.0419862 0.020578 0.0005 
514 1 0.0111808 0.0395987 0.0205 0.0005 
641 1 0.010538 0.0380824 0.0209998 0.001 
626 1 0.00890172 0.0407351 0.0207562 0.00075 
949 1 0.00817656 0.0391494 0.02075 0.00075 
1018 1 0.0146854 0.0412016 0.0205 0.0005 
1019 1 0.015722 0.0371902 0.0205 0.0005 
669 1 0.00891015 0.0380612 0.0221659 0.001 
835 1 0.0106346 0.036655 0.0205003 0.0005 
1134 1 0.0101392 0.0355335 0.0207525 0.00075 
883 1 0.0130769 0.0425522 0.0205 0.0005 
802 1 0.0123498 0.037875 0.0207699 0.00075 
1033 1 0.0120257 0.0411109 0.0210289 0.001 
1101 1 0.0102545 0.0421377 0.0212053 0.00075 
960 1 0.00973304 0.0362881 0.022057 0.00075 
1278 1 0.0136922 0.0412305 0.0206407 0.0005 
1154 1 0.0118486 0.0355841 0.0220862 0.0005 
1003 1 0.0161603 0.0411011 0.0212516 0.00075 
1043 1 0.0142512 0.0375622 0.021002 0.001 
1107 1 0.013238 0.0357653 0.0220241 0.00075 
1167 1 0.0153886 0.0371528 0.0222173 0.0005 
1131 1 0.0134617 0.0390055 0.0220065 0.0005 
973 1 0.0129444 0.0399195 0.0221221 0.0005 
374 1 0.0232231 0.0384287 0.02075 0.00075 
985 1 0.0192645 0.0425598 0.0205 0.0005 
268 1 0.016543 0.0388925 0.020508 0.0005 
394 1 0.0175727 0.0391939 0.0205017 0.0005 
326 1 0.023501 0.0399 0.0204994 0.0005 
650 1 0.0218801 0.0405052 0.0215002 0.0015 
959 1 0.0193131 0.0384959 0.0205 0.0005 
848 1 0.0215206 0.0384102 0.02075 0.00075 
993 1 0.0234681 0.0424371 0.0205 0.0005 
996 1 0.0168742 0.0373261 0.0205021 0.0005 
1148 1 0.0162281 0.0384836 0.0213895 0.0005 
878 1 0.0200438 0.0379634 0.0214224 0.00075 
892 1 0.0186378 0.0374776 0.020763 0.00075 
1227 1 0.0196266 0.0409763 0.0221345 0.00075 
856 1 0.0173686 0.0383431 0.0209913 0.0005 
1261 1 0.0227926 0.0357638 0.0205 0.0005 
986 1 0.0189675 0.0396186 0.0209272 0.00075 
1062 1 0.0224579 0.0425578 0.022356 0.00075 
579 1 0.000807956 0.0434653 0.02075 0.00075 
242 1 0.00537262 0.0433179 0.0205 0.0005 
814 1 0.00383454 0.043362 0.02075 0.00075 
423 1 0.00105569 0.0454282 0.021 0.001 
347 1 0.00628646 0.0452169 0.02075 0.00075 
543 1 0.00124877 0.0476578 0.0212497 0.00125 
855 1 0.00438927 0.04575 0.0205 0.0005 
3 1 0.00268239 0.0489907 0.0204998 0.0005 
402 1 0.00420668 0.0479067 0.0217499 0.00175 
712 1 0.00648119 0.048225 0.02075 0.00075 
682 1 0.00798923 0.0461248 0.0213314 0.0005 
674 1 0.0065916 0.0496658 0.0222631 0.0005 
740 1 0.000499994 0.0489922 0.0221642 0.0005 
1242 1 0.00507576 0.0449792 0.0205007 0.0005 
1251 1 0.00400245 0.0446346 0.0205371 0.0005 
1100 1 0.00737722 0.0477764 0.0218803 0.00075 
987 1 0.00632631 0.0436766 0.0218125 0.0005 
40 1 0.00769328 0.0478254 0.0205 0.0005 
495 1 0.00793958 0.0495905 0.0220389 0.00075 
328 1 0.010283 0.0431824 0.0205 0.0005 
969 1 0.0147997 0.0444514 0.0206103 0.0005 
405 1 0.0130217 0.0464465 0.0205 0.0005 
453 1 0.0106356 0.0451979 0.0219998 0.002 
335 1 0.0110065 0.0471659 0.0205009 0.0005 
533 1 0.00869469 0.0470673 0.02075 0.00075 
371 1 0.0130505 0.0493391 0.020528 0.0005 
1194 1 0.0121657 0.043115 0.0206874 0.0005 
1201 1 0.012451 0.048084 0.0207475 0.00075 
1240 1 0.014389 0.045325 0.0216324 0.00075 
367 1 0.0104584 0.0491047 0.0219635 0.00175 
1297 1 0.0141049 0.0434269 0.0222395 0.00075 
1306 1 0.0149799 0.0463874 0.02075 0.00075 
485 1 0.023248 0.0463196 0.02075 0.00075 
499 1 0.0198265 0.0489603 0.0212499 0.00125 
804 1 0.0234456 0.0441989 0.0205 0.0005 
935 1 0.0200906 0.0431624 0.0205 0.0005 
970 1 0.0221108 0.0453236 0.0207561 0.00075 
859 1 0.0218668 0.0473771 0.02075 0.00075 
1097 1 0.0199671 0.0443785 0.0207634 0.00075 
1155 1 0.0198289 0.0471459 0.0216695 0.0005 
963 1 0.0208919 0.0450848 0.0224719 0.0005 
1271 1 0.0220208 0.0440824 0.0205863 0.0005 
1289 1 0.0194413 0.0458159 0.0207794 0.0005 
1135 1 0.0214306 0.0436974 0.0220729 0.00075 
1319 1 0.0172836 0.0462108 0.0214587 0.0005 
1334 1 0.0171836 0.0433806 0.0224659 0.0005 
354 1 0.00345008 0.0497848 0.0205 0.0005 
424 1 0.00660984 0.0497532 0.02075 0.00075 
265 1 0.00513645 0.0500454 0.02075 0.00075 
145 1 0.00171081 0.0504388 0.0214999 0.0015 
704 1 0.00333629 0.0511723 0.0205036 0.0005 
788 1 0.00494548 0.0502732 0.0223367 0.00075 
122 1 0.00131645 0.0530373 0.0210067 0.001 
866 1 0.000576165 0.0554901 0.02051 0.0005 
525 1 0.00103769 0.0544476 0.0205077 0.0005 
567 1 0.00216832 0.0563413 0.02051 0.0005 
487 1 0.00400893 0.0547537 0.0222498 0.00225 
357 1 0.000506701 0.0565632 0.0205 0.0005 
705 1 0.00678176 0.0520182 0.0215019 0.0015 
230 1 0.004096 0.0518217 0.0205 0.0005 
637 1 0.000576799 0.0541249 0.0218468 0.0005 
489 1 0.00744178 0.0567687 0.0217499 0.00175 
194 1 0.000774694 0.0554314 0.0221136 0.00075 
551 1 0.0036413 0.0516518 0.022007 0.00075 
496 1 0.00838775 0.0505297 0.02075 0.00075 
88 1 0.0093828 0.0563349 0.0205292 0.0005 
977 1 0.0124988 0.050798 0.0205 0.0005 
923 1 0.0105491 0.056137 0.0205 0.0005 
936 1 0.0113892 0.0550511 0.0205422 0.0005 
1151 1 0.0153158 0.053883 0.0205034 0.0005 
792 1 0.0142985 0.0550407 0.0213762 0.00125 
1260 1 0.0114258 0.0523605 0.0213301 0.00125 
1089 1 0.0127736 0.0538926 0.0217845 0.0005 
1115 1 0.0150904 0.0566822 0.0205002 0.0005 
410 1 0.0178566 0.0498984 0.0205 0.0005 
168 1 0.0224996 0.0497407 0.0215003 0.0015 
467 1 0.0163876 0.0529422 0.0209998 0.001 
133 1 0.0173619 0.0508739 0.0205 0.0005 
711 1 0.0160122 0.0562681 0.0205026 0.0005 
769 1 0.0209325 0.0506163 0.0205 0.0005 
976 1 0.0178366 0.0531337 0.0205 0.0005 
653 1 0.0173234 0.0560555 0.0205 0.0005 
8 1 0.0181774 0.0558237 0.0215943 0.0005 
776 1 0.0188322 0.0529245 0.0205 0.0005 
702 1 0.0228323 0.0523291 0.0205 0.0005 
415 1 0.0234963 0.0530913 0.0205 0.0005 
431 1 0.0174631 0.0546372 0.0209999 0.001 
573 1 0.0204939 0.0523995 0.0214999 0.0015 
73 1 0.0227002 0.0547758 0.021 0.001 
470 1 0.0213058 0.0550115 0.0205 0.0005 
258 1 0.0202172 0.0554282 0.0205015 0.0005 
785 1 0.0192016 0.0541148 0.02075 0.00075 
661 1 0.0200622 0.0550657 0.0219506 0.001 
1102 1 0.0233735 0.0514764 0.0205 0.0005 
1005 1 0.0234998 0.0538332 0.0218501 0.0005 
649 1 0.0164422 0.0557189 0.0212979 0.0005 
1146 1 0.0188717 0.0552933 0.0210161 0.0005 
1079 1 0.0183289 0.0559559 0.0205 0.0005 
306 1 0.0194013 0.0566245 0.0207567 0.00075 
690 1 0.0183443 0.0519659 0.0208827 0.0005 
1156 1 0.0158829 0.0565067 0.0217959 0.0005 
829 1 0.0180136 0.0531439 0.0218585 0.00075 
1031 1 0.0190493 0.0564653 0.0222728 0.00075 
777 1 0.0214039 0.0541942 0.0218528 0.0005 
1200 1 0.0206445 0.0503034 0.0220524 0.0005 
1169 1 0.0171994 0.0557378 0.0223895 0.0005 
773 1 0.0054484 0.0570874 0.0205334 0.0005 
510 1 0.00137091 0.0573567 0.0218533 0.00125 
331 1 0.000549981 0.0587202 0.0205 0.0005 
781 1 0.00660567 0.0587038 0.0205 0.0005 
907 1 0.00787336 0.0597008 0.0213013 0.0005 
94 1 0.00524488 0.0585766 0.0212231 0.001 
1199 1 0.00385789 0.0597252 0.0205119 0.0005 
361 1 0.00600705 0.060362 0.0205 0.0005 
116 1 0.00709536 0.0596756 0.0205 0.0005 
378 1 0.00115815 0.0602926 0.0209999 0.001 
899 1 0.00469602 0.0604854 0.0205 0.0005 
24 1 0.00718694 0.0616486 0.0212504 0.00125 
421 1 0.00201481 0.0614707 0.0205 0.0005 
446 1 0.00378349 0.0621489 0.0217498 0.00175 
244 1 0.000505959 0.0615477 0.0205 0.0005 
379 1 0.00571279 0.0622216 0.0205003 0.0005 
165 1 0.00117162 0.0632808 0.0204993 0.0005 
381 1 0.00113007 0.062297 0.021282 0.00075 
619 1 0.00610664 0.0636084 0.0209999 0.001 
1076 1 0.0053977 0.0636706 0.0223327 0.0005 
574 1 0.0076855 0.0638669 0.0205 0.0005 
267 1 0.000528092 0.0593225 0.0220347 0.0005 
147 1 0.0100031 0.0572406 0.0205 0.0005 
771 1 0.00841508 0.059447 0.0205 0.0005 
11 1 0.0114251 0.0570085 0.0207499 0.00075 
373 1 0.0102425 0.0632081 0.020811 0.00075 
81 1 0.0122355 0.0586564 0.02075 0.00075 
493 1 0.0135449 0.0593481 0.0205 0.0005 
760 1 0.0128802 0.0600965 0.0205 0.0005 
1010 1 0.0153856 0.0607679 0.0205 0.0005 
580 1 0.0147767 0.0597052 0.0207621 0.00075 
860 1 0.00882945 0.0627103 0.0207512 0.00075 
1127 1 0.0104036 0.0579862 0.0214198 0.00075 
1171 1 0.00916474 0.0588781 0.0217164 0.00075 
593 1 0.0141237 0.057834 0.0207729 0.00075 
1218 1 0.0110036 0.0585951 0.0205 0.0005 
1237 1 0.0113949 0.0580182 0.0223406 0.0005 
716 1 0.015875 0.061013 0.0220327 0.0005 
1327 1 0.0150705 0.0576468 0.0224806 0.00075 
48 1 0.0213321 0.0567924 0.0212498 0.00125 
863 1 0.0232487 0.0573246 0.022233 0.00075 
112 1 0.0232489 0.0570978 0.02075 0.00075 
414 1 0.0163118 0.0588563 0.0209999 0.001 
445 1 0.0234994 0.0583287 0.0205 0.0005 
26 1 0.0185551 0.0623942 0.0217496 0.00175 
222 1 0.0213492 0.0584792 0.0205 0.0005 
186 1 0.0234062 0.0593298 0.0205 0.0005 
455 1 0.0190788 0.0589321 0.0217665 0.00175 
129 1 0.0202145 0.0607762 0.0205 0.0005 
45 1 0.0227502 0.0609597 0.0212496 0.00125 
313 1 0.0212484 0.0597092 0.0207501 0.00075 
477 1 0.0209843 0.0618272 0.0205 0.0005 
564 1 0.0234998 0.0636613 0.0214526 0.0005 
595 1 0.0173285 0.0604042 0.0207503 0.00075 
707 1 0.023076 0.062715 0.0221509 0.00075 
851 1 0.0203408 0.060957 0.0216671 0.0005 
778 1 0.0170187 0.0634691 0.0205 0.0005 
150 1 0.022006 0.0588881 0.0224338 0.00125 
105 1 0.000503439 0.0640259 0.0205 0.0005 
218 1 0.00157005 0.0640234 0.0217393 0.001 
694 1 0.00329346 0.0647875 0.0209999 0.001 
806 1 0.00496947 0.0648734 0.0220287 0.00075 
634 1 0.00075317 0.0652255 0.02075 0.00075 
948 1 0.00483748 0.0673251 0.0214922 0.0005 
667 1 0.00729088 0.065225 0.0209998 0.001 
264 1 0.000505882 0.0664255 0.0205 0.0005 
601 1 0.0022295 0.0672305 0.0217498 0.00175 
7 1 0.000500605 0.0686943 0.0205054 0.0005 
226 1 0.000750423 0.0699069 0.02075 0.00075 
86 1 0.00739116 0.0701104 0.0209998 0.001 
532 1 0.00751215 0.0676641 0.0215014 0.0015 
660 1 0.00670382 0.0694741 0.0222159 0.0005 
96 1 0.000516356 0.0687855 0.0215107 0.0005 
1279 1 0.00570312 0.0696489 0.022318 0.0005 
540 1 0.0143227 0.066106 0.0212552 0.00125 
703 1 0.0115976 0.0666359 0.0205067 0.0005 
140 1 0.0137781 0.0682103 0.0205 0.0005 
926 1 0.0115233 0.0676473 0.0205001 0.0005 
187 1 0.0116913 0.0700499 0.0205107 0.0005 
736 1 0.0100552 0.0681243 0.0205 0.0005 
103 1 0.00980211 0.0655428 0.0215506 0.0015 
325 1 0.0127474 0.0694174 0.0205 0.0005 
1071 1 0.0150649 0.0689155 0.0224086 0.0005 
1125 1 0.0155039 0.0672159 0.0205202 0.0005 
720 1 0.00990419 0.0693833 0.02075 0.00075 
1185 1 0.0140049 0.0701867 0.0205034 0.0005 
102 1 0.0150301 0.0699979 0.0205 0.0005 
1283 1 0.0129063 0.0675971 0.0211218 0.0005 
1039 1 0.0125942 0.0693123 0.0218117 0.00075 
1304 1 0.0119589 0.0684857 0.0208408 0.0005 
817 1 0.0120416 0.0669097 0.0221626 0.001 
1316 1 0.0105269 0.0682419 0.0222341 0.0005 
179 1 0.023456 0.0639659 0.0205003 0.0005 
1160 1 0.0169301 0.0649932 0.0217325 0.00075 
1204 1 0.0181572 0.0664126 0.0205 0.0005 
1126 1 0.0195876 0.0663296 0.0213349 0.00075 
271 1 0.0214291 0.0645 0.0205058 0.0005 
344 1 0.0182769 0.0647724 0.0210339 0.00075 
38 1 0.0203968 0.0638503 0.0208439 0.00075 
696 1 0.01923 0.0641617 0.0205018 0.0005 
84 1 0.0227499 0.0653811 0.0212498 0.00125 
964 1 0.0179097 0.0698678 0.02075 0.00075 
411 1 0.0208378 0.0656888 0.02075 0.00075 
469 1 0.019776 0.0650418 0.0205 0.0005 
255 1 0.021755 0.066951 0.0204999 0.0005 
157 1 0.0229999 0.0676078 0.0210183 0.001 
104 1 0.0234996 0.0689264 0.0205 0.0005 
355 1 0.0203673 0.0668808 0.0205 0.0005 
18 1 0.020932 0.0677063 0.0205001 0.0005 
456 1 0.0198283 0.0679417 0.021384 0.0005 
478 1 0.0205107 0.0691205 0.0205254 0.0005 
225 1 0.0225735 0.069338 0.0205 0.0005 
39 1 0.0206405 0.0703499 0.0207695 0.00075 
117 1 0.0216042 0.0686646 0.0209397 0.00075 
645 1 0.0226404 0.0685542 0.0224463 0.00075 
14 1 0.0234982 0.0699278 0.0205 0.0005 
541 1 0.0223424 0.0707476 0.0209999 0.001 
589 1 0.0188829 0.065725 0.0204993 0.0005 
250 1 0.0212013 0.0670654 0.0222579 0.00125 
131 1 0.0234998 0.0699351 0.0215006 0.0005 
586 1 0.0214977 0.0696901 0.0216465 0.0005 
873 1 0.0234999 0.0689349 0.0215131 0.0005 
610 1 0.0224685 0.0699936 0.0223249 0.0005 
314 1 0.00233712 0.0710268 0.0212499 0.00125 
332 1 0.000503797 0.0713339 0.0205 0.0005 
263 1 0.00505598 0.0713697 0.0214999 0.0015 
558 1 0.000750162 0.0725384 0.02075 0.00075 
745 1 0.00475468 0.0740872 0.021376 0.0005 
76 1 0.00237051 0.0728355 0.0205003 0.0005 
243 1 0.00287307 0.0730076 0.0221727 0.001 
299 1 0.00441337 0.073736 0.020501 0.0005 
629 1 0.00520226 0.0750105 0.0205 0.0005 
167 1 0.00162137 0.0740363 0.0209999 0.001 
351 1 0.00538972 0.0731103 0.0205 0.0005 
210 1 0.00618112 0.0767532 0.0209999 0.001 
149 1 0.000546481 0.077477 0.0205 0.0005 
69 1 0.00348739 0.0765901 0.021209 0.00075 
565 1 0.00397765 0.0774986 0.0205 0.0005 
560 1 0.000499999 0.0760309 0.0205 0.0005 
22 1 0.00180376 0.0772159 0.02075 0.00075 
744 1 0.00200483 0.0757286 0.02075 0.00075 
644 1 0.00351966 0.0748508 0.0209999 0.001 
132 1 0.000509787 0.0768614 0.0215845 0.0005 
513 1 0.00784146 0.0772476 0.02075 0.00075 
56 1 0.00492744 0.0759828 0.0205 0.0005 
215 1 0.0049788 0.0774989 0.0205 0.0005 
53 1 0.00328773 0.0734449 0.0205 0.0005 
363 1 0.0071798 0.0741069 0.0219996 0.002 
284 1 0.000749933 0.0747863 0.0223192 0.00075 
869 1 0.00715 0.0715959 0.0218021 0.0005 
229 1 0.000784689 0.0719537 0.0222571 0.00075 
468 1 0.00618411 0.0774569 0.0223246 0.0005 
651 1 0.00790181 0.0717658 0.0207499 0.00075 
559 1 0.00886374 0.0760067 0.0217039 0.0005 
20 1 0.00866475 0.0756621 0.0205 0.0005 
184 1 0.0090243 0.0732856 0.0205 0.0005 
443 1 0.0103306 0.0743769 0.02125 0.00125 
29 1 0.00898727 0.07725 0.0217442 0.00075 
101 1 0.00905077 0.0775 0.0205 0.0005 
197 1 0.00983302 0.071907 0.0212502 0.00125 
422 1 0.0137916 0.0735962 0.0219716 0.0005 
473 1 0.0132405 0.0737348 0.0207504 0.00075 
182 1 0.00969305 0.0763292 0.0207545 0.00075 
302 1 0.0145632 0.0753959 0.0215002 0.0015 
288 1 0.0109119 0.0758468 0.0204997 0.0005 
87 1 0.0153659 0.0773876 0.0205 0.0005 
125 1 0.0100818 0.0774922 0.0205 0.0005 
79 1 0.0122673 0.0762488 0.0210001 0.001 
195 1 0.0143519 0.0774897 0.0205 0.0005 
435 1 0.0129311 0.0774974 0.0204999 0.0005 
173 1 0.010846 0.0768448 0.0205 0.0005 
277 1 0.0118228 0.0749015 0.0205 0.0005 
206 1 0.0119603 0.0738868 0.0205 0.0005 
563 1 0.0116015 0.0775 0.0205 0.0005 
605 1 0.012827 0.0749166 0.0205 0.0005 
664 1 0.0128688 0.0775 0.021568 0.0005 
407 1 0.0157532 0.0772494 0.0219589 0.00075 
393 1 0.0122035 0.0735261 0.021439 0.0005 
464 1 0.0126416 0.0715465 0.0214999 0.0015 
1013 1 0.0120333 0.0747484 0.0215991 0.0005 
630 1 0.0111686 0.0729364 0.021799 0.0005 
656 1 0.0212726 0.0709608 0.0223683 0.00075 
679 1 0.0187438 0.071117 0.0208118 0.00075 
498 1 0.0166418 0.07725 0.02075 0.00075 
239 1 0.0163982 0.0750679 0.0205001 0.0005 
398 1 0.0188831 0.0756393 0.0204999 0.0005 
235 1 0.017693 0.0752809 0.0205004 0.0005 
408 1 0.0192784 0.0732893 0.0216521 0.00075 
404 1 0.020104 0.0717516 0.02075 0.00075 
376 1 0.018495 0.073237 0.0205 0.0005 
257 1 0.0190658 0.0724158 0.0205019 0.0005 
134 1 0.0231716 0.0720257 0.0204999 0.0005 
418 1 0.0235 0.0717523 0.021404 0.0005 
358 1 0.0188108 0.0744185 0.0207577 0.00075 
52 1 0.0234974 0.0740668 0.0204999 0.0005 
141 1 0.0177502 0.0767288 0.0205 0.0005 
163 1 0.016868 0.0759994 0.0205 0.0005 
9 1 0.0217768 0.0733322 0.0217497 0.00175 
329 1 0.0217154 0.0769822 0.0209999 0.001 
93 1 0.0234967 0.075067 0.0205 0.0005 
481 1 0.0193894 0.0775002 0.0204998 0.0005 
234 1 0.0203189 0.0755505 0.0210001 0.001 
655 1 0.0200336 0.074143 0.0204999 0.0005 
85 1 0.0231758 0.0772245 0.0205 0.0005 