ITEM: TIMESTEP
660000
ITEM: NUMBER OF ATOMS
2870
ITEM: BOX BOUNDS mm mm mm
-2.4e-06 0.0240024
-7.8e-06 0.0780078
-3e-06 0.030003
ITEM: ATOMS id type x y z radius 
1 1 0.00337245 0.00220637 0.0215003 0.0015 
2 1 0.000499898 0.00150018 0.0204998 0.0005 
3 1 0.00532483 0.00440085 0.0207499 0.00075 
4 1 0.00474691 0.000500598 0.0205 0.0005 
5 1 0.00425901 0.00370172 0.0205 0.0005 
6 1 0.00274536 0.000499982 0.0205 0.0005 
7 1 0.00455811 0.00591609 0.0204999 0.0005 
8 1 0.000499952 0.000499969 0.0205 0.0005 
9 1 0.00100004 0.00282058 0.0210051 0.001 
10 1 0.00698814 0.00563817 0.0205 0.0005 
11 1 0.00374533 0.000501578 0.0205 0.0005 
12 1 0.000535745 0.00528591 0.0205128 0.0005 
13 1 0.00631575 0.00329123 0.0214768 0.0005 
14 1 0.00502911 0.00169083 0.0205 0.0005 
15 1 0.00128738 0.00627984 0.0204998 0.0005 
16 1 0.00602072 0.00156029 0.0205 0.0005 
17 1 0.000503364 0.00423585 0.0205 0.0005 
18 1 0.00537641 0.00290179 0.02075 0.00075 
19 1 0.00604606 0.000500258 0.0215619 0.0005 
20 1 0.00576358 0.000502149 0.0205 0.0005 
21 1 0.000724741 0.000501355 0.0214743 0.0005 
22 1 0.00699262 0.00230569 0.0207499 0.00075 
23 1 0.00162264 0.000989007 0.0207505 0.00075 
24 1 0.00696266 0.000752683 0.02075 0.00075 
25 1 0.00314193 0.00392252 0.0204998 0.0005 
27 1 0.00267263 0.00483382 0.0205 0.0005 
28 1 0.00222711 0.00351931 0.0204999 0.0005 
29 1 0.00181149 0.000750452 0.0222233 0.00075 
31 1 0.000509334 0.00148357 0.0215126 0.0005 
32 1 0.000499884 0.00621224 0.0211122 0.0005 
33 1 0.00165915 0.00443784 0.0211291 0.00075 
34 1 0.00648588 0.00342054 0.0204999 0.0005 
36 1 0.00526419 0.00101061 0.0212014 0.0005 
37 1 0.00286567 0.00455277 0.0214458 0.0005 
38 1 0.00442602 0.000501147 0.0214471 0.0005 
40 1 0.000499991 0.000499981 0.0224487 0.0005 
41 1 0.00762523 0.00335449 0.0204999 0.0005 
42 1 0.00797429 0.00144297 0.0205 0.0005 
43 1 0.00710315 0.00420717 0.0204998 0.0005 
1724 1 0.00578171 0.00584912 0.02075 0.00075 
1770 1 0.00190116 0.00549047 0.0205 0.0005 
1665 1 0.0012891 0.00562041 0.0212926 0.0005 
1715 1 0.00519432 0.000503939 0.0220871 0.0005 
1926 1 0.00390382 0.00488104 0.0207497 0.00075 
1662 1 0.0066575 0.00470634 0.021842 0.001 
1735 1 0.00548669 0.00192937 0.0215275 0.0005 
1762 1 0.00658814 0.00155086 0.0219814 0.00075 
2008 1 0.00174138 0.00305469 0.022292 0.0005 
2110 1 0.00507061 0.00147033 0.0223125 0.0005 
2030 1 0.000500046 0.00229503 0.0223215 0.0005 
2181 1 0.00521421 0.00653448 0.0216278 0.0005 
1610 1 0.00702608 0.00329221 0.0221806 0.0005 
1881 1 0.00756629 0.00247529 0.0218475 0.0005 
1977 1 0.00397892 0.000504657 0.0223623 0.0005 
1700 1 0.00749845 0.00651577 0.0219778 0.001 
139 1 0.00716067 0.0066232 0.0205 0.0005 
2188 1 0.00535677 0.00285645 0.0220016 0.0005 
102 1 0.00487752 0.00686337 0.0204997 0.0005 
2207 1 0.000501217 0.00479805 0.0214362 0.0005 
2269 1 0.00226366 0.00417625 0.0224767 0.00075 
1956 1 0.0058257 0.00592345 0.0221311 0.0005 
1682 1 0.00301455 0.00699012 0.0217545 0.00175 
1812 1 0.000749721 0.00391428 0.0223472 0.00075 
2060 1 0.000758336 0.00607799 0.0223277 0.00075 
2077 1 0.00625554 0.00269727 0.0224107 0.0005 
2292 1 0.00831386 0.00104672 0.0219125 0.001 
44 1 0.00808249 0.0062276 0.0205 0.0005 
1633 1 0.00848032 0.00387304 0.0205 0.0005 
1806 1 0.00802431 0.00500102 0.0207889 0.00075 
99 1 0.00931066 0.00546462 0.0214053 0.0005 
45 1 0.00898879 0.0057417 0.0204999 0.0005 
46 1 0.00921784 0.00458105 0.0205 0.0005 
47 1 0.0116497 0.00422495 0.0204998 0.0005 
48 1 0.0101482 0.00280582 0.0204999 0.0005 
49 1 0.0138037 0.00245844 0.02075 0.00075 
50 1 0.0101174 0.00180644 0.0205001 0.0005 
51 1 0.0103293 0.000500012 0.0205005 0.0005 
52 1 0.0125559 0.000499882 0.0204999 0.0005 
53 1 0.0109633 0.00127353 0.0204999 0.0005 
54 1 0.00832024 0.000504737 0.0205 0.0005 
55 1 0.0108638 0.00524843 0.0204999 0.0005 
56 1 0.013276 0.00394649 0.0205 0.0005 
57 1 0.00853311 0.00253274 0.02075 0.00075 
58 1 0.0108766 0.00632107 0.0205 0.0005 
59 1 0.00998869 0.00573224 0.0205 0.0005 
60 1 0.0125316 0.00571508 0.0215 0.0015 
61 1 0.0100299 0.00108005 0.021567 0.00075 
62 1 0.00917004 0.00148689 0.0204999 0.0005 
63 1 0.00938958 0.00345707 0.0205 0.0005 
64 1 0.0142566 0.00556587 0.0204997 0.0005 
66 1 0.0148497 0.00410059 0.0212498 0.00125 
67 1 0.00932928 0.000499858 0.0205 0.0005 
68 1 0.0117124 0.00265495 0.0212698 0.00125 
69 1 0.0137547 0.000749826 0.0207499 0.00075 
70 1 0.0104313 0.00410265 0.0207499 0.00075 
71 1 0.0115716 0.000499792 0.0206752 0.0005 
72 1 0.0128172 0.00153762 0.0204999 0.0005 
75 1 0.0157351 0.00150931 0.0214999 0.0015 
65 1 0.0140041 0.00695129 0.0205 0.0005 
2063 1 0.0127244 0.00049996 0.0214855 0.0005 
2015 1 0.0102729 0.00521105 0.0213057 0.0005 
143 1 0.0149116 0.00632106 0.0204999 0.0005 
1828 1 0.0133745 0.00156232 0.0223213 0.001 
1644 1 0.0104554 0.00586884 0.0223531 0.00075 
1941 1 0.0118233 0.000929886 0.0215421 0.0005 
2441 1 0.00999431 0.00231151 0.0213555 0.0005 
1608 1 0.0159645 0.00569583 0.02075 0.00075 
2355 1 0.00884752 0.00589244 0.0221815 0.0005 
2090 1 0.0110562 0.00439702 0.0217935 0.0005 
2263 1 0.0110963 0.00703648 0.0219425 0.0005 
2046 1 0.0147368 0.00610587 0.0217187 0.00075 
2268 1 0.0118229 0.00404059 0.0223328 0.0005 
2039 1 0.0111137 0.00127207 0.0221596 0.0005 
2130 1 0.013215 0.00329488 0.021927 0.0005 
1623 1 0.0159938 0.00524522 0.0219156 0.0005 
74 1 0.0164002 0.00447398 0.0205 0.0005 
76 1 0.0220913 0.000749807 0.0207499 0.00075 
77 1 0.0235 0.00522254 0.0205 0.0005 
78 1 0.0203779 0.00100192 0.0209999 0.001 
79 1 0.0232502 0.00170154 0.0207499 0.00075 
81 1 0.0206508 0.00271219 0.0207499 0.00075 
82 1 0.0205341 0.00480382 0.0205 0.0005 
83 1 0.0187347 0.00159144 0.0207496 0.00075 
84 1 0.0215312 0.00186084 0.0205 0.0005 
85 1 0.017147 0.000500102 0.0205 0.0005 
86 1 0.0234998 0.000500538 0.0205 0.0005 
87 1 0.0209582 0.00389789 0.0205 0.0005 
88 1 0.0181472 0.000505507 0.0205 0.0005 
89 1 0.0216944 0.00188718 0.0217389 0.00075 
90 1 0.020963 0.00595132 0.02075 0.00075 
91 1 0.0197391 0.00590523 0.0204999 0.0005 
92 1 0.0225021 0.00435037 0.0205 0.0005 
93 1 0.0218501 0.00295913 0.0204998 0.0005 
95 1 0.0235001 0.00422271 0.0204998 0.0005 
97 1 0.0171812 0.00583531 0.0205 0.0005 
182 1 0.0232476 0.00642075 0.0207503 0.00075 
1643 1 0.0210933 0.00442423 0.0213491 0.0005 
1663 1 0.0215306 0.00472025 0.0205 0.0005 
1901 1 0.0201519 0.00629578 0.0216372 0.0005 
1650 1 0.0222937 0.00527562 0.0216673 0.001 
2044 1 0.016903 0.00278983 0.0205 0.0005 
1612 1 0.0229337 0.00325323 0.0214941 0.001 
187 1 0.0219612 0.00666272 0.0205 0.0005 
2221 1 0.0222356 0.000499986 0.0219661 0.0005 
1629 1 0.0185065 0.0041789 0.0222499 0.00225 
1979 1 0.0215707 0.00664574 0.0215931 0.0005 
2364 1 0.0189966 0.0004995 0.0212977 0.0005 
2071 1 0.0178689 0.000831683 0.0217215 0.00075 
2447 1 0.0214731 0.00350294 0.0212609 0.0005 
2462 1 0.0209943 0.00593184 0.0220345 0.0005 
2334 1 0.019208 0.00122518 0.022293 0.00075 
94 1 0.0185067 0.00661766 0.0205 0.0005 
96 1 0.0207327 0.00703945 0.021971 0.0005 
35 1 0.000533089 0.00747493 0.0219769 0.0005 
26 1 0.000752657 0.00738155 0.0207499 0.00075 
100 1 0.00610474 0.00756518 0.0209998 0.001 
101 1 0.00127024 0.00849421 0.0205 0.0005 
103 1 0.00177625 0.0102799 0.0204999 0.0005 
104 1 0.00230366 0.00917449 0.0207498 0.00075 
105 1 0.00714466 0.0118536 0.0205 0.0005 
106 1 0.00347007 0.00880125 0.0204999 0.0005 
107 1 0.00264728 0.0119312 0.0205 0.0005 
108 1 0.00445579 0.010772 0.0207502 0.00075 
109 1 0.000499946 0.0111047 0.0204999 0.0005 
110 1 0.00508726 0.0097218 0.0205 0.0005 
111 1 0.00159464 0.0113722 0.0205 0.0005 
112 1 0.00385033 0.0121648 0.0207499 0.00075 
113 1 0.00576479 0.0102912 0.0213841 0.00075 
114 1 0.00501804 0.0118445 0.0210602 0.0005 
116 1 0.00278711 0.0130128 0.0205 0.0005 
118 1 0.000501257 0.0131064 0.0205 0.0005 
119 1 0.003645 0.0135282 0.0205 0.0005 
122 1 0.00597025 0.012097 0.0204994 0.0005 
124 1 0.00561652 0.0111619 0.0204999 0.0005 
125 1 0.00502274 0.0126728 0.0205 0.0005 
126 1 0.00341204 0.0129645 0.0216047 0.0005 
128 1 0.00718217 0.0133683 0.0204998 0.0005 
129 1 0.00592866 0.0130961 0.0205 0.0005 
130 1 0.0016214 0.0126017 0.0207499 0.00075 
131 1 0.000501053 0.0121047 0.0205 0.0005 
132 1 0.00580868 0.00902932 0.0205 0.0005 
133 1 0.00404729 0.00961765 0.0204999 0.0005 
134 1 0.000750207 0.00961046 0.0207499 0.00075 
136 1 0.00161284 0.00970372 0.0216497 0.0005 
137 1 0.00241602 0.0130529 0.0216028 0.0005 
138 1 0.00049986 0.00849572 0.0212569 0.0005 
140 1 0.000500031 0.0136351 0.0213789 0.0005 
141 1 0.00775531 0.00808839 0.0207495 0.00075 
1822 1 0.00297842 0.0105138 0.0207501 0.00075 
154 1 0.00710538 0.0106295 0.02075 0.00075 
1865 1 0.000555254 0.0116259 0.0213788 0.0005 
1780 1 0.00467499 0.00856605 0.02075 0.00075 
222 1 0.00639267 0.0139818 0.0204999 0.0005 
1934 1 0.00338166 0.0120091 0.0218981 0.0005 
120 1 0.00496509 0.0138961 0.02075 0.00075 
1893 1 0.00376437 0.00937419 0.0216937 0.00075 
1655 1 0.0067924 0.00917546 0.0212571 0.00075 
1805 1 0.00219277 0.0114857 0.0215917 0.00075 
1890 1 0.00116896 0.0107401 0.0211474 0.0005 
1970 1 0.00475939 0.0110524 0.0219299 0.0005 
2119 1 0.0014683 0.00860152 0.0214818 0.0005 
1739 1 0.00112822 0.0127624 0.0224247 0.001 
2433 1 0.00231424 0.0137568 0.0223057 0.0005 
123 1 0.000500133 0.0141125 0.0205 0.0005 
2342 1 0.0025839 0.0124088 0.0223493 0.0005 
2047 1 0.00350827 0.010787 0.0221276 0.00075 
1888 1 0.00785052 0.00959718 0.0222363 0.00075 
163 1 0.00836864 0.011813 0.02075 0.00075 
183 1 0.0152915 0.00724573 0.0204999 0.0005 
148 1 0.00838831 0.0135128 0.0207937 0.00075 
142 1 0.0138753 0.00795961 0.0205 0.0005 
144 1 0.00966149 0.0103333 0.0204996 0.0005 
145 1 0.0124731 0.00815865 0.0205 0.0005 
147 1 0.0130749 0.00735998 0.0205 0.0005 
149 1 0.00950135 0.00723739 0.0212499 0.00125 
150 1 0.011417 0.00751966 0.0207499 0.00075 
151 1 0.0115264 0.00901548 0.0207498 0.00075 
152 1 0.0102818 0.00861382 0.0205 0.0005 
153 1 0.0108935 0.0103755 0.0207497 0.00075 
155 1 0.0115361 0.0117305 0.02075 0.00075 
156 1 0.00948861 0.0113179 0.0205 0.0005 
158 1 0.00870335 0.0106347 0.0205 0.0005 
159 1 0.0131035 0.00894435 0.0205 0.0005 
160 1 0.0103198 0.0118735 0.0204999 0.0005 
164 1 0.00959523 0.0133755 0.0204999 0.0005 
165 1 0.00945707 0.0123824 0.0205 0.0005 
166 1 0.0107661 0.0130175 0.0207502 0.00075 
167 1 0.00911308 0.00877418 0.0205 0.0005 
168 1 0.0122651 0.013067 0.02075 0.00075 
169 1 0.0123148 0.0107757 0.0205 0.0005 
170 1 0.0137683 0.0107171 0.0209998 0.001 
171 1 0.00815643 0.00953891 0.02075 0.00075 
172 1 0.0115937 0.0108745 0.0219803 0.00075 
173 1 0.0127604 0.0117088 0.0204998 0.0005 
174 1 0.0133564 0.0125115 0.0204998 0.0005 
175 1 0.00923169 0.0107862 0.0213353 0.0005 
176 1 0.0089393 0.0126182 0.0215171 0.0005 
177 1 0.00822273 0.0106453 0.0213768 0.0005 
179 1 0.0126251 0.0098225 0.0205 0.0005 
180 1 0.0127575 0.0119697 0.0217223 0.00075 
184 1 0.0147395 0.00958583 0.021162 0.0005 
1640 1 0.0110587 0.00829015 0.0219861 0.00075 
1732 1 0.00976277 0.00942938 0.0216918 0.001 
181 1 0.0140611 0.0092594 0.0205 0.0005 
191 1 0.0150036 0.00843585 0.02075 0.00075 
1614 1 0.0101164 0.0118127 0.0219848 0.001 
192 1 0.0152451 0.0110948 0.0205 0.0005 
1815 1 0.0152186 0.0104752 0.021337 0.0005 
325 1 0.0133377 0.0136659 0.0204999 0.0005 
1676 1 0.0128164 0.010684 0.0221585 0.0005 
1592 1 0.0152612 0.013119 0.0220002 0.002 
2095 1 0.0121396 0.00991082 0.0213699 0.0005 
1831 1 0.00848926 0.00864386 0.0215942 0.0005 
1916 1 0.0155443 0.00896518 0.021745 0.0005 
1929 1 0.0147202 0.0106626 0.0221835 0.0005 
201 1 0.01592 0.00962328 0.02075 0.00075 
1775 1 0.0114983 0.0135673 0.0216011 0.0005 
2223 1 0.0126772 0.013486 0.0218532 0.0005 
2037 1 0.0112374 0.00969745 0.0217567 0.0005 
1920 1 0.00975473 0.0140266 0.0221613 0.00125 
1793 1 0.0135886 0.0112981 0.0223709 0.0005 
162 1 0.0102897 0.0141455 0.0204997 0.0005 
1740 1 0.0161322 0.0108806 0.0213059 0.0005 
80 1 0.0198545 0.00712444 0.0207498 0.00075 
178 1 0.0170228 0.0121732 0.0204999 0.0005 
185 1 0.0235 0.00761898 0.0205 0.0005 
186 1 0.0169952 0.00755758 0.0214997 0.0015 
188 1 0.0226469 0.00721813 0.0218705 0.00075 
189 1 0.0235001 0.00961862 0.0204999 0.0005 
190 1 0.0213459 0.00800488 0.0209997 0.001 
193 1 0.0179291 0.0129969 0.0207499 0.00075 
194 1 0.0187385 0.00785952 0.0205 0.0005 
196 1 0.0203475 0.00906589 0.0214864 0.0005 
197 1 0.0187784 0.00940947 0.0209999 0.001 
198 1 0.0163517 0.0114304 0.0205 0.0005 
199 1 0.0173735 0.00924775 0.0204999 0.0005 
200 1 0.0229997 0.0109133 0.0210683 0.001 
202 1 0.02042 0.00924046 0.0205 0.0005 
203 1 0.0171682 0.0104551 0.0207498 0.00075 
204 1 0.0177775 0.0115173 0.0204999 0.0005 
205 1 0.0201286 0.0129519 0.0205 0.0005 
206 1 0.0213055 0.0112452 0.02075 0.00075 
207 1 0.0235 0.0122189 0.0205 0.0005 
208 1 0.0234923 0.0086188 0.0205 0.0005 
209 1 0.0198402 0.00834979 0.0210024 0.0005 
210 1 0.0222107 0.0124423 0.0207499 0.00075 
211 1 0.0204797 0.0102665 0.0205 0.0005 
212 1 0.0224496 0.013923 0.0207498 0.00075 
213 1 0.0209788 0.0124256 0.0205 0.0005 
214 1 0.0234998 0.013227 0.0205 0.0005 
215 1 0.021369 0.0133463 0.0205 0.0005 
216 1 0.0217816 0.00969329 0.0207498 0.00075 
217 1 0.0171262 0.0115784 0.021297 0.0005 
218 1 0.0210902 0.0124353 0.0217469 0.00075 
219 1 0.023069 0.0131646 0.0215267 0.0005 
221 1 0.0235 0.0122626 0.0214991 0.0005 
324 1 0.0191458 0.0131364 0.0205 0.0005 
1626 1 0.0193575 0.0115692 0.0212499 0.00125 
1691 1 0.0229453 0.00912913 0.0215093 0.00075 
1684 1 0.0219157 0.0115118 0.0219148 0.0005 
1915 1 0.0235 0.00801264 0.0214192 0.0005 
220 1 0.0200651 0.0132454 0.0214538 0.0005 
2005 1 0.0207688 0.0102309 0.0217165 0.00075 
1851 1 0.0193347 0.00749648 0.0223787 0.001 
1835 1 0.0177898 0.0122044 0.0217064 0.0005 
2211 1 0.0182781 0.0134624 0.0218563 0.0005 
1968 1 0.0191313 0.0136413 0.0213635 0.0005 
328 1 0.0189902 0.0141247 0.0204998 0.0005 
2149 1 0.0194916 0.0100699 0.0221424 0.0005 
326 1 0.0205188 0.0138727 0.0205 0.0005 
330 1 0.0170941 0.0139186 0.0205 0.0005 
2244 1 0.0235 0.0110612 0.0224746 0.0005 
329 1 0.017535 0.0139799 0.0214139 0.0005 
2289 1 0.0209437 0.0113279 0.0223079 0.0005 
332 1 0.0235 0.0140746 0.0214102 0.0005 
2213 1 0.0227552 0.0122277 0.0225024 0.00075 
117 1 0.00381662 0.0145756 0.0204999 0.0005 
121 1 0.00189197 0.0143632 0.0210004 0.001 
223 1 0.00445017 0.0153494 0.0205 0.0005 
224 1 0.00297125 0.0152785 0.0205 0.0005 
225 1 0.00222918 0.0162608 0.0205 0.0005 
226 1 0.00602216 0.0155184 0.0212505 0.00125 
227 1 0.00140709 0.0156915 0.0205 0.0005 
228 1 0.000516271 0.0151124 0.0205 0.0005 
229 1 0.000499969 0.0161125 0.0205 0.0005 
230 1 0.00450655 0.0173136 0.0204999 0.0005 
231 1 0.00283091 0.0174814 0.0205 0.0005 
232 1 0.00124973 0.0175044 0.02125 0.00125 
233 1 0.00652697 0.0170882 0.0205 0.0005 
234 1 0.00537327 0.0182157 0.0207496 0.00075 
235 1 0.000500109 0.018934 0.0205 0.0005 
236 1 0.00344318 0.0164209 0.0207508 0.00075 
237 1 0.00545318 0.0169927 0.0204996 0.0005 
238 1 0.00426599 0.0157402 0.0214018 0.0005 
239 1 0.00466381 0.0163263 0.0204998 0.0005 
240 1 0.00265846 0.0184663 0.0205 0.0005 
241 1 0.000818188 0.0156161 0.0213093 0.0005 
242 1 0.000500102 0.0200129 0.0214972 0.0005 
243 1 0.00354053 0.0189374 0.0205 0.0005 
244 1 0.00443749 0.0193793 0.0204999 0.0005 
245 1 0.00596907 0.0172685 0.0213101 0.0005 
246 1 0.00333409 0.0199159 0.0204999 0.0005 
247 1 0.00188207 0.0196514 0.0209996 0.001 
248 1 0.00460013 0.0189596 0.0213928 0.0005 
249 1 0.00714502 0.0200511 0.0204999 0.0005 
250 1 0.0037427 0.0179581 0.0204993 0.0005 
256 1 0.00729152 0.0184769 0.0212499 0.00125 
255 1 0.00760014 0.0163994 0.022239 0.00075 
392 1 0.00574077 0.01967 0.02075 0.00075 
443 1 0.00455625 0.0205982 0.0207502 0.00075 
1846 1 0.00349541 0.0194937 0.0216653 0.00075 
393 1 0.00307927 0.0208829 0.0205 0.0005 
1615 1 0.00494269 0.0170388 0.021358 0.0005 
259 1 0.00764575 0.0165732 0.0207499 0.00075 
395 1 0.000499303 0.0199436 0.0204996 0.0005 
1616 1 0.00381398 0.0143589 0.0219841 0.001 
1802 1 0.00526376 0.0208038 0.0217642 0.0005 
411 1 0.000499996 0.0209435 0.0205 0.0005 
390 1 0.0067304 0.0203553 0.0216453 0.00075 
444 1 0.00358532 0.020749 0.0215226 0.0005 
1636 1 0.00247991 0.0208834 0.0220902 0.00075 
432 1 0.00588954 0.020902 0.0208995 0.0005 
261 1 0.00759379 0.0153497 0.0204999 0.0005 
1804 1 0.00314767 0.01803 0.0215951 0.00075 
2055 1 0.00437006 0.0178572 0.0214026 0.0005 
1908 1 0.0040115 0.0169674 0.0222052 0.00075 
391 1 0.00716748 0.0210507 0.0204998 0.0005 
1784 1 0.00537087 0.0168123 0.0222328 0.0005 
146 1 0.00739344 0.0143562 0.0205 0.0005 
2106 1 0.000596357 0.0155714 0.0222834 0.0005 
2329 1 0.000996185 0.0208715 0.0213652 0.0005 
1937 1 0.00558862 0.0193131 0.0224651 0.001 
1766 1 0.00743542 0.0151119 0.0222 0.0005 
2215 1 0.00231301 0.0187812 0.0221414 0.0005 
2087 1 0.00571881 0.0178201 0.0221056 0.0005 
1971 1 0.00255489 0.0159201 0.0221727 0.001 
302 1 0.0079354 0.0155019 0.0214271 0.0005 
2561 1 0.00426764 0.0184564 0.0221965 0.0005 
2524 1 0.00134334 0.014601 0.022378 0.0005 
2113 1 0.00636684 0.0168961 0.0222748 0.0005 
161 1 0.00929535 0.0143333 0.0205 0.0005 
1697 1 0.00812608 0.0145436 0.0217006 0.0005 
1855 1 0.0110934 0.0143121 0.0210707 0.0005 
252 1 0.0119902 0.0142605 0.0205 0.0005 
254 1 0.0128698 0.0147362 0.0205 0.0005 
257 1 0.0120844 0.0148377 0.0216219 0.00075 
258 1 0.0114054 0.015072 0.0205 0.0005 
260 1 0.0131167 0.0142044 0.021313 0.0005 
262 1 0.0138494 0.0145354 0.0205 0.0005 
263 1 0.0122915 0.015552 0.0204999 0.0005 
264 1 0.0101324 0.0185238 0.0205 0.0005 
265 1 0.00935745 0.0191558 0.0204999 0.0005 
267 1 0.0137767 0.016117 0.02125 0.00125 
268 1 0.0113607 0.018144 0.0205 0.0005 
269 1 0.00995441 0.0150875 0.0205 0.0005 
270 1 0.0121922 0.019061 0.0207499 0.00075 
271 1 0.0122569 0.0165524 0.0204998 0.0005 
272 1 0.0151089 0.018878 0.0205 0.0005 
273 1 0.010373 0.0159956 0.0204999 0.0005 
274 1 0.010966 0.0190762 0.0205 0.0005 
275 1 0.0101492 0.0197664 0.0204999 0.0005 
276 1 0.0132678 0.0201293 0.021553 0.0005 
277 1 0.0113866 0.0199835 0.0205 0.0005 
278 1 0.0124392 0.0206097 0.02075 0.00075 
280 1 0.011454 0.0171484 0.0205 0.0005 
281 1 0.0124773 0.0176294 0.0210945 0.00075 
282 1 0.0132584 0.0196643 0.0205 0.0005 
283 1 0.0135754 0.0176866 0.0205 0.0005 
284 1 0.0133501 0.0186614 0.0205 0.0005 
285 1 0.0142273 0.0193515 0.0205 0.0005 
286 1 0.0142674 0.0184 0.0208051 0.0005 
287 1 0.0131714 0.0189262 0.021878 0.00075 
288 1 0.0119657 0.0160418 0.0213085 0.0005 
289 1 0.0150626 0.0199011 0.0205 0.0005 
290 1 0.0145567 0.0174927 0.0205 0.0005 
291 1 0.00919509 0.0181692 0.0204998 0.0005 
292 1 0.0104565 0.0170795 0.0204996 0.0005 
293 1 0.0148776 0.020456 0.0214066 0.0005 
294 1 0.013971 0.0203659 0.0205 0.0005 
295 1 0.00849646 0.0174538 0.0204998 0.0005 
296 1 0.0155427 0.0176589 0.0204997 0.0005 
297 1 0.00893993 0.0158149 0.0207499 0.00075 
298 1 0.0109544 0.0175159 0.0212857 0.0005 
300 1 0.0108588 0.0165224 0.0212254 0.0005 
301 1 0.0113784 0.0160716 0.0204998 0.0005 
303 1 0.0122703 0.0197851 0.0217657 0.0005 
304 1 0.00986194 0.0165582 0.0211495 0.0005 
305 1 0.0136699 0.0178496 0.021482 0.0005 
306 1 0.014987 0.0150997 0.0204999 0.0005 
307 1 0.00996688 0.0156076 0.0214415 0.0005 
308 1 0.0116692 0.0169112 0.021731 0.0005 
309 1 0.0124046 0.0207498 0.0219923 0.0005 
310 1 0.0121883 0.0159331 0.0222769 0.0005 
311 1 0.00946492 0.0172064 0.0204999 0.0005 
312 1 0.00999738 0.0177649 0.0211369 0.0005 
314 1 0.0112279 0.0160583 0.0220299 0.0005 
315 1 0.0103356 0.0191885 0.0218714 0.001 
316 1 0.0152444 0.0167046 0.0204999 0.0005 
317 1 0.0159438 0.0194284 0.0205 0.0005 
319 1 0.0109157 0.0153089 0.0213391 0.0005 
320 1 0.0156908 0.0158099 0.0204999 0.0005 
321 1 0.00902494 0.018702 0.0213286 0.0005 
322 1 0.0141794 0.0197403 0.02142 0.0005 
323 1 0.00862905 0.0167678 0.0214967 0.0005 
331 1 0.0158091 0.0164592 0.0212879 0.0005 
1603 1 0.00837652 0.0147276 0.0204999 0.0005 
1637 1 0.00902495 0.0176746 0.021352 0.0005 
1721 1 0.0154221 0.0155477 0.0214268 0.0005 
461 1 0.00867755 0.020583 0.0212499 0.00125 
318 1 0.0115027 0.0183268 0.0214902 0.0005 
313 1 0.0114425 0.0203109 0.0214432 0.0005 
279 1 0.0148335 0.0208757 0.0205 0.0005 
2191 1 0.0133403 0.0147086 0.0221925 0.0005 
465 1 0.0105862 0.0209104 0.0207499 0.00075 
1997 1 0.0133365 0.017427 0.0223248 0.0005 
458 1 0.010283 0.0206885 0.0219421 0.0005 
2002 1 0.00879515 0.018206 0.0221673 0.0005 
1886 1 0.0112294 0.0204433 0.0224112 0.0005 
2180 1 0.0119018 0.0189463 0.0221663 0.0005 
2218 1 0.0147204 0.020629 0.02238 0.0005 
2457 1 0.0174448 0.0144501 0.0222918 0.0005 
1729 1 0.0221972 0.0164424 0.0219929 0.0005 
327 1 0.0235001 0.0145523 0.0205 0.0005 
333 1 0.0180097 0.0143204 0.0204999 0.0005 
334 1 0.0214421 0.0146724 0.0205 0.0005 
336 1 0.0225863 0.0151431 0.0205 0.0005 
337 1 0.0170219 0.0153324 0.0209999 0.001 
338 1 0.0184331 0.0154223 0.0204998 0.0005 
339 1 0.0194296 0.0150808 0.0205 0.0005 
340 1 0.0186007 0.0172249 0.0212514 0.0005 
341 1 0.0180433 0.0163437 0.0204999 0.0005 
342 1 0.0173783 0.0181796 0.0205 0.0005 
343 1 0.0222524 0.0163214 0.02075 0.00075 
344 1 0.0179554 0.0173612 0.0204999 0.0005 
345 1 0.0192822 0.0163049 0.0207499 0.00075 
346 1 0.0235001 0.017552 0.0205 0.0005 
347 1 0.0223078 0.0178319 0.0207499 0.00075 
348 1 0.0212046 0.0156582 0.0205 0.0005 
349 1 0.0201591 0.0175396 0.0205 0.0005 
350 1 0.0183746 0.018269 0.0205 0.0005 
351 1 0.0191597 0.0175752 0.0205 0.0005 
352 1 0.0235 0.0185537 0.0205 0.0005 
353 1 0.0200047 0.0176589 0.0217346 0.00075 
354 1 0.0167713 0.0170485 0.0207499 0.00075 
355 1 0.0209201 0.0184993 0.02075 0.00075 
356 1 0.0211996 0.0173069 0.0204999 0.0005 
357 1 0.0196902 0.0184228 0.0204999 0.0005 
358 1 0.0235 0.0155521 0.0204999 0.0005 
359 1 0.0204299 0.0148692 0.0205 0.0005 
360 1 0.0189949 0.0182418 0.0212838 0.0005 
361 1 0.0203433 0.019903 0.02075 0.00075 
362 1 0.0189127 0.0193691 0.02075 0.00075 
363 1 0.0235 0.016552 0.0204999 0.0005 
364 1 0.0224709 0.0199469 0.0214999 0.0015 
366 1 0.0205067 0.0166513 0.0208001 0.0005 
367 1 0.0232448 0.0170227 0.0216293 0.00075 
368 1 0.0177843 0.0189165 0.0210404 0.0005 
369 1 0.0235 0.0182328 0.021447 0.0005 
370 1 0.019899 0.018853 0.0213781 0.0005 
371 1 0.0176482 0.0177563 0.0213656 0.0005 
373 1 0.0180381 0.0201796 0.0212073 0.0005 
374 1 0.0174592 0.019775 0.0204998 0.0005 
376 1 0.0163781 0.0182083 0.0204999 0.0005 
377 1 0.0230859 0.015452 0.0216751 0.00075 
378 1 0.0206559 0.0207882 0.0215754 0.0005 
379 1 0.0168267 0.0190552 0.0207852 0.0005 
380 1 0.0213022 0.0168377 0.0213769 0.0005 
381 1 0.0207583 0.0189868 0.0218895 0.0005 
382 1 0.0235 0.0184948 0.0224121 0.0005 
383 1 0.020342 0.0156979 0.0210527 0.0005 
385 1 0.0177737 0.0166827 0.0214012 0.0005 
386 1 0.0198057 0.0143098 0.0210481 0.0005 
388 1 0.020064 0.0163873 0.0217216 0.0005 
1830 1 0.021522 0.0179742 0.0220196 0.00075 
1972 1 0.0187835 0.0150251 0.021903 0.001 
526 1 0.0189759 0.0208677 0.0207499 0.00075 
375 1 0.016518 0.0210453 0.0212499 0.00125 
1906 1 0.0169996 0.0164574 0.0219929 0.0005 
2136 1 0.0234951 0.0143357 0.0223755 0.0005 
527 1 0.0212401 0.0211677 0.0205 0.0005 
2036 1 0.01613 0.0156896 0.0224623 0.00075 
1866 1 0.0211709 0.0145578 0.0224887 0.0015 
394 1 0.00527975 0.0215862 0.0204999 0.0005 
396 1 0.00196018 0.0213811 0.0207499 0.00075 
397 1 0.00516834 0.0252495 0.0205 0.0005 
398 1 0.00583297 0.0242096 0.0207498 0.00075 
399 1 0.00452979 0.0227728 0.0210282 0.001 
400 1 0.000749776 0.0222666 0.02075 0.00075 
401 1 0.00100189 0.025307 0.0213502 0.0005 
402 1 0.000500834 0.0244655 0.0205 0.0005 
403 1 0.000499992 0.0254655 0.0205 0.0005 
404 1 0.00780257 0.0219185 0.0205 0.0005 
405 1 0.00248504 0.0249622 0.0205 0.0005 
406 1 0.00521445 0.0262484 0.0205 0.0005 
407 1 0.00334826 0.0240336 0.0207495 0.00075 
408 1 0.000499786 0.0234653 0.0204998 0.0005 
409 1 0.00673171 0.0254105 0.0207498 0.00075 
410 1 0.00380694 0.021569 0.0205 0.0005 
412 1 0.0016816 0.0239625 0.0212779 0.001 
413 1 0.00642369 0.0220232 0.0207505 0.00075 
415 1 0.00666843 0.0266387 0.0205 0.0005 
416 1 0.00230833 0.0260675 0.0210564 0.00075 
417 1 0.00761786 0.0263247 0.0205 0.0005 
418 1 0.00421166 0.0260784 0.0204999 0.0005 
419 1 0.000499993 0.0246424 0.0219037 0.0005 
420 1 0.00683226 0.0276252 0.0205 0.0005 
421 1 0.00460879 0.0241743 0.0204999 0.0005 
422 1 0.000499989 0.0231108 0.0216373 0.0005 
423 1 0.000499936 0.0261637 0.0212183 0.0005 
424 1 0.00152354 0.025237 0.0205 0.0005 
426 1 0.0027323 0.0226665 0.0207499 0.00075 
427 1 0.0069865 0.0263286 0.0219081 0.00075 
428 1 0.00119519 0.0261843 0.0204999 0.0005 
429 1 0.00418277 0.0250789 0.0205 0.0005 
430 1 0.00329801 0.0255447 0.0205 0.0005 
431 1 0.00598522 0.0263252 0.0211599 0.0005 
433 1 0.00143823 0.0272489 0.0205 0.0005 
434 1 0.00353056 0.0270275 0.0213515 0.0005 
435 1 0.00332688 0.0265443 0.0205 0.0005 
436 1 0.00609611 0.023108 0.0217332 0.00075 
437 1 0.000500426 0.027131 0.0214736 0.0005 
438 1 0.000499967 0.0269031 0.0205 0.0005 
439 1 0.00130505 0.0262096 0.0221733 0.00075 
440 1 0.00448215 0.0268962 0.0210077 0.0005 
442 1 0.0066091 0.0274332 0.0214614 0.0005 
445 1 0.00558146 0.0274348 0.0207499 0.00075 
446 1 0.00657799 0.0232379 0.0204999 0.0005 
447 1 0.000499945 0.0278015 0.0224397 0.0005 
450 1 0.00342215 0.02754 0.0204999 0.0005 
453 1 0.00705779 0.0242029 0.0205 0.0005 
454 1 0.00439901 0.0277537 0.0205 0.0005 
455 1 0.00748212 0.0271258 0.0210828 0.0005 
456 1 0.00309833 0.021572 0.0212301 0.0005 
594 1 0.00243577 0.0271794 0.0204999 0.0005 
629 1 0.00254027 0.0268382 0.0220127 0.0005 
1594 1 0.00771673 0.0243372 0.0221198 0.00125 
522 1 0.0075136 0.0228855 0.0204999 0.0005 
463 1 0.00791654 0.0250117 0.0205 0.0005 
1824 1 0.00549836 0.0217515 0.0215472 0.0005 
615 1 0.00273135 0.0276283 0.021343 0.0005 
1857 1 0.00140658 0.0219101 0.0217523 0.0005 
1939 1 0.00575467 0.0273839 0.0219868 0.0005 
1917 1 0.00436101 0.0214264 0.0216679 0.0005 
605 1 0.00457304 0.0278873 0.0217639 0.00075 
606 1 0.0015821 0.0276442 0.0218342 0.00075 
579 1 0.00780099 0.0278731 0.0204999 0.0005 
2076 1 0.00206587 0.0252407 0.021962 0.0005 
2088 1 0.00238675 0.0221002 0.0218107 0.0005 
2129 1 0.00350003 0.0216083 0.0221451 0.0005 
589 1 0.00196418 0.0281015 0.0205 0.0005 
1819 1 0.00555725 0.0282517 0.0224428 0.0005 
451 1 0.00074996 0.0282619 0.0207499 0.00075 
2357 1 0.00132599 0.0247983 0.0224716 0.0005 
1765 1 0.00322587 0.0283388 0.0222446 0.00075 
448 1 0.00836272 0.0241056 0.0205 0.0005 
457 1 0.0148885 0.0214068 0.021775 0.0005 
459 1 0.0137212 0.0213343 0.0205 0.0005 
460 1 0.0140536 0.022549 0.0217642 0.0005 
462 1 0.00999054 0.0217109 0.0215083 0.0005 
464 1 0.00837154 0.0270272 0.0205 0.0005 
466 1 0.00892532 0.0228052 0.0209999 0.001 
467 1 0.00918784 0.0253592 0.02075 0.00075 
468 1 0.0103673 0.0236367 0.0215396 0.00075 
469 1 0.00937435 0.0266243 0.0205 0.0005 
470 1 0.00941975 0.02413 0.0204998 0.0005 
471 1 0.0128279 0.0242698 0.0205 0.0005 
473 1 0.0129998 0.0252549 0.0205 0.0005 
474 1 0.0139732 0.0239234 0.0204999 0.0005 
475 1 0.0118175 0.0229897 0.0204999 0.0005 
476 1 0.0127742 0.0217877 0.0205 0.0005 
477 1 0.0111357 0.0247513 0.021051 0.0005 
478 1 0.0110608 0.0236432 0.0204999 0.0005 
479 1 0.0132597 0.0215884 0.0216346 0.00075 
480 1 0.0112793 0.0263473 0.0205 0.0005 
481 1 0.0123324 0.0248672 0.021484 0.00075 
482 1 0.014026 0.0249835 0.0211601 0.00075 
483 1 0.0118796 0.0255412 0.0205 0.0005 
484 1 0.0118276 0.024285 0.0204999 0.0005 
485 1 0.0122257 0.0236342 0.0211464 0.0005 
486 1 0.0150528 0.0252524 0.0205 0.0005 
487 1 0.0107007 0.0224059 0.0207499 0.00075 
488 1 0.0152557 0.0232674 0.0205 0.0005 
489 1 0.0103873 0.0243823 0.0205 0.0005 
490 1 0.0133878 0.0228476 0.0207497 0.00075 
491 1 0.0141948 0.0260314 0.0204999 0.0005 
492 1 0.0105705 0.0253653 0.0205 0.0005 
493 1 0.0103309 0.0272791 0.0205 0.0005 
494 1 0.01424 0.0259771 0.0218884 0.0005 
495 1 0.0128283 0.0268267 0.0212499 0.00125 
496 1 0.0150612 0.0242497 0.0204999 0.0005 
497 1 0.0149092 0.026731 0.0205 0.0005 
498 1 0.014936 0.0259854 0.0211701 0.0005 
499 1 0.014563 0.0268652 0.0214775 0.0005 
501 1 0.014684 0.0220916 0.0207498 0.00075 
502 1 0.0144785 0.0233296 0.0211261 0.0005 
503 1 0.0157335 0.0247819 0.0210614 0.0005 
504 1 0.0122936 0.0223869 0.0211401 0.0005 
505 1 0.0102967 0.0263029 0.0207143 0.0005 
506 1 0.0155306 0.0273635 0.0211916 0.0005 
507 1 0.0108466 0.0275075 0.0213546 0.0005 
508 1 0.0131608 0.0239082 0.0213708 0.0005 
509 1 0.0114757 0.0230623 0.0214787 0.0005 
510 1 0.00882634 0.0264319 0.021314 0.0005 
511 1 0.0154507 0.0265519 0.0218148 0.0005 
512 1 0.00934234 0.024349 0.0214723 0.0005 
513 1 0.00808948 0.0257685 0.0211842 0.0005 
514 1 0.0117735 0.0217767 0.0204999 0.0005 
516 1 0.0154794 0.0228371 0.0221291 0.001 
517 1 0.0113557 0.0274026 0.0205 0.0005 
518 1 0.00939216 0.0276241 0.0204999 0.0005 
519 1 0.0144806 0.0278782 0.02075 0.00075 
520 1 0.015063 0.0276207 0.0220373 0.0005 
523 1 0.0150983 0.024141 0.0214931 0.0005 
1723 1 0.0115204 0.0215865 0.021709 0.00075 
1708 1 0.00861269 0.0278512 0.0217611 0.001 
1749 1 0.0142204 0.0218007 0.0224059 0.0005 
1978 1 0.00821501 0.0264465 0.0221052 0.0005 
525 1 0.0159149 0.0225155 0.0205 0.0005 
1837 1 0.0152223 0.0252178 0.0221155 0.00075 
521 1 0.0100021 0.0280165 0.0211884 0.0005 
1895 1 0.0140954 0.0239057 0.0222009 0.00075 
651 1 0.0107017 0.0282078 0.0204999 0.0005 
1704 1 0.00901372 0.02198 0.0222493 0.0005 
2406 1 0.00997877 0.0225586 0.0220385 0.0005 
2177 1 0.00931294 0.0235147 0.0222633 0.0005 
656 1 0.0133396 0.0283228 0.0204999 0.0005 
1750 1 0.0126077 0.0230222 0.0224621 0.001 
2020 1 0.013376 0.0252802 0.0224789 0.00075 
500 1 0.0160639 0.0263229 0.0207499 0.00075 
515 1 0.0164664 0.0251662 0.0205 0.0005 
535 1 0.0162259 0.0275641 0.0205 0.0005 
528 1 0.0198546 0.0214154 0.0214501 0.0005 
529 1 0.0188428 0.0217269 0.0216479 0.0005 
530 1 0.0169609 0.0253593 0.0219029 0.001 
532 1 0.0201033 0.021605 0.0205 0.0005 
533 1 0.0207813 0.0217169 0.0212264 0.0005 
534 1 0.0235 0.021684 0.0214391 0.0005 