ITEM: TIMESTEP
570000
ITEM: NUMBER OF ATOMS
2158
ITEM: BOX BOUNDS mm mm mm
-2.4e-06 0.0240024
-7.8e-06 0.0780078
-3e-06 0.030003
ITEM: ATOMS id type x y z radius 
1 1 0.00328377 0.00238531 0.0214999 0.0015 
2 1 0.000500829 0.00205219 0.0205 0.0005 
3 1 0.0053967 0.00479594 0.0207508 0.00075 
4 1 0.00474848 0.000500002 0.0205 0.0005 
5 1 0.00450214 0.00378788 0.0205 0.0005 
6 1 0.00277932 0.00050005 0.0205 0.0005 
7 1 0.00399627 0.00478916 0.0205029 0.0005 
8 1 0.000499987 0.000518445 0.0205 0.0005 
9 1 0.00100027 0.00337775 0.0209999 0.001 
10 1 0.0066424 0.00625365 0.0205 0.0005 
11 1 0.00376972 0.000712383 0.0205 0.0005 
12 1 0.000501126 0.00571842 0.0205 0.0005 
13 1 0.00537381 0.00357673 0.0215363 0.0005 
14 1 0.00482669 0.00150313 0.0205 0.0005 
15 1 0.00178238 0.00671563 0.0205 0.0005 
16 1 0.00591586 0.00149523 0.0205 0.0005 
17 1 0.000539523 0.0047163 0.0205 0.0005 
18 1 0.0053988 0.00260536 0.02075 0.00075 
19 1 0.00564632 0.000501158 0.0214845 0.0005 
20 1 0.00582125 0.000499869 0.0205 0.0005 
21 1 0.000762215 0.000499991 0.0214648 0.0005 
22 1 0.00688933 0.00230774 0.0207513 0.00075 
23 1 0.00157276 0.0011281 0.0207499 0.00075 
24 1 0.00700575 0.000811577 0.02075 0.00075 
25 1 0.00316479 0.00411343 0.0205 0.0005 
27 1 0.00300947 0.00521604 0.0205345 0.0005 
28 1 0.00216927 0.00423861 0.0205 0.0005 
29 1 0.00188894 0.000750405 0.0221667 0.00075 
31 1 0.000500169 0.00145395 0.0213032 0.0005 
32 1 0.000511737 0.00620703 0.0213724 0.0005 
33 1 0.00170038 0.00544318 0.0207508 0.00075 
34 1 0.00602613 0.00374223 0.0205 0.0005 
35 1 0.00101056 0.00698201 0.0219128 0.0005 
36 1 0.00481448 0.0010481 0.0213903 0.0005 
37 1 0.00230136 0.00413535 0.021516 0.0005 
38 1 0.00397991 0.000500957 0.0214545 0.0005 
40 1 0.000499993 0.000512388 0.0224297 0.0005 
41 1 0.00726336 0.00347387 0.0205 0.0005 
42 1 0.007945 0.0015976 0.0205 0.0005 
43 1 0.00693804 0.00442012 0.0205 0.0005 
1724 1 0.00543409 0.00649835 0.0208308 0.00075 
1770 1 0.0026629 0.00621406 0.0205 0.0005 
1610 1 0.00535439 0.00472526 0.0223871 0.0005 
44 1 0.00778889 0.00650918 0.0205 0.0005 
1633 1 0.00788454 0.00387297 0.0212736 0.0005 
1665 1 0.00128556 0.00581247 0.0218718 0.0005 
1806 1 0.00796186 0.00524198 0.02075 0.00075 
1715 1 0.00444916 0.000741976 0.0223098 0.0005 
1926 1 0.00342895 0.00466555 0.0216153 0.00075 
1662 1 0.00684629 0.00471141 0.0220259 0.001 
1735 1 0.00532457 0.00186052 0.0217922 0.0005 
1762 1 0.00666772 0.00185636 0.0222298 0.00075 
1812 1 0.00130063 0.00460934 0.0222107 0.00075 
45 1 0.00876131 0.00627527 0.0205 0.0005 
46 1 0.00925574 0.00525595 0.0204999 0.0005 
47 1 0.0111029 0.0043613 0.0205 0.0005 
48 1 0.00958429 0.00277936 0.0205 0.0005 
49 1 0.0136809 0.00252774 0.02075 0.00075 
50 1 0.00994993 0.00150288 0.0205 0.0005 
51 1 0.0101311 0.000499999 0.0205 0.0005 
52 1 0.0123382 0.000567682 0.0205 0.0005 
53 1 0.0110662 0.000922497 0.0205 0.0005 
54 1 0.0081902 0.000499997 0.0205 0.0005 
55 1 0.0104789 0.00532982 0.0205 0.0005 
56 1 0.012458 0.00406743 0.0205 0.0005 
57 1 0.00835636 0.00275311 0.02075 0.00075 
58 1 0.0106405 0.00662562 0.0205 0.0005 
59 1 0.00977562 0.00610977 0.0205 0.0005 
60 1 0.0121559 0.00578294 0.0214999 0.0015 
61 1 0.0105024 0.000934501 0.0216155 0.00075 
62 1 0.00894632 0.00153042 0.0205 0.0005 
63 1 0.00850784 0.00398603 0.0204999 0.0005 
64 1 0.0140527 0.00560616 0.0205 0.0005 
66 1 0.0147789 0.00417543 0.0212526 0.00125 
67 1 0.00916063 0.000580513 0.0207275 0.0005 
68 1 0.0115846 0.00269469 0.0212499 0.00125 
69 1 0.0136065 0.000750214 0.0207535 0.00075 
70 1 0.0097367 0.00412978 0.0207483 0.00075 
71 1 0.0116498 0.000505371 0.0212273 0.0005 
72 1 0.012802 0.00167434 0.0205001 0.0005 
1608 1 0.0158737 0.00577618 0.02075 0.00075 
75 1 0.0156352 0.0015075 0.0214999 0.0015 
65 1 0.0136339 0.00684645 0.0205 0.0005 
2063 1 0.0126133 0.000730428 0.0221792 0.0005 
183 1 0.0156019 0.0069709 0.0205 0.0005 
2015 1 0.00923554 0.0057839 0.0222523 0.0005 
1623 1 0.0159719 0.00549555 0.022011 0.0005 
74 1 0.0168371 0.00423618 0.0205 0.0005 
76 1 0.0228962 0.000750011 0.02075 0.00075 
77 1 0.0234915 0.00523772 0.0205 0.0005 
78 1 0.0206379 0.00100005 0.0210033 0.001 
79 1 0.0232486 0.00309863 0.020754 0.00075 
81 1 0.0204653 0.00305155 0.0207499 0.00075 
82 1 0.0197857 0.00460288 0.0205 0.0005 
83 1 0.0191104 0.0019154 0.02075 0.00075 
84 1 0.0213597 0.00221482 0.0205 0.0005 
85 1 0.0176006 0.000586028 0.0205 0.0005 
86 1 0.0234689 0.001881 0.0205467 0.0005 
87 1 0.0209552 0.00420297 0.0205 0.0005 
88 1 0.0189234 0.000693132 0.0205028 0.0005 
89 1 0.0223261 0.00203537 0.0212722 0.00075 
90 1 0.0213894 0.00600869 0.02075 0.00075 
91 1 0.0201617 0.00603727 0.0205006 0.0005 
92 1 0.0223017 0.00397503 0.0210079 0.0005 
93 1 0.0216275 0.00343786 0.0205 0.0005 
94 1 0.0191538 0.0064355 0.0205012 0.0005 
95 1 0.0235 0.004316 0.0208881 0.0005 
97 1 0.0173807 0.00557994 0.0205 0.0005 
182 1 0.0232499 0.00644786 0.0207508 0.00075 
1643 1 0.0204708 0.00518302 0.0209397 0.0005 
1663 1 0.0218308 0.00475723 0.02051 0.0005 
1901 1 0.0203338 0.00614152 0.0215166 0.0005 
1650 1 0.0225688 0.0052683 0.0218553 0.001 
2044 1 0.0161034 0.00330021 0.020501 0.0005 
1612 1 0.0227053 0.00335156 0.0224097 0.001 
96 1 0.0213804 0.00698803 0.0215275 0.0005 
26 1 0.000749996 0.00737736 0.02075 0.00075 
100 1 0.0060613 0.00812994 0.0210001 0.001 
101 1 0.00175024 0.00808433 0.0205 0.0005 
102 1 0.00440638 0.00774981 0.0205 0.0005 
103 1 0.00196736 0.0103971 0.0205 0.0005 
104 1 0.00224958 0.00920267 0.02075 0.00075 
105 1 0.00675294 0.011112 0.0205 0.0005 
106 1 0.00319878 0.00826479 0.0205 0.0005 
107 1 0.00331347 0.0113992 0.0205 0.0005 
108 1 0.0045323 0.0109457 0.020752 0.00075 
109 1 0.000499999 0.010513 0.0205 0.0005 
110 1 0.00540909 0.00941391 0.0205 0.0005 
111 1 0.00142305 0.0112381 0.0205 0.0005 
112 1 0.00449365 0.0127596 0.0207505 0.00075 
113 1 0.00556391 0.0100807 0.021611 0.00075 
114 1 0.00503862 0.0118684 0.0214549 0.0005 
116 1 0.00241528 0.0129239 0.0205 0.0005 
118 1 0.00050001 0.0131784 0.0205 0.0005 
119 1 0.003401 0.013313 0.0204999 0.0005 
122 1 0.00632527 0.0120163 0.020515 0.0005 
124 1 0.00595831 0.0105048 0.0205 0.0005 
125 1 0.00533578 0.01187 0.0205 0.0005 
126 1 0.0040103 0.0138788 0.0210553 0.0005 
128 1 0.00680883 0.0128921 0.0205 0.0005 
129 1 0.00581597 0.0130168 0.0205 0.0005 
130 1 0.00137712 0.0124461 0.0210067 0.00075 
131 1 0.000499993 0.0117137 0.0205 0.0005 
132 1 0.00645044 0.00961051 0.0205 0.0005 
133 1 0.00419499 0.00976846 0.0205007 0.0005 
134 1 0.000749996 0.00931401 0.02075 0.00075 
136 1 0.00150346 0.00930754 0.0217473 0.0005 
137 1 0.00277137 0.0133942 0.0213074 0.0005 
138 1 0.00049998 0.00836186 0.0215203 0.0005 
139 1 0.00724035 0.00734578 0.0205 0.0005 
140 1 0.000499995 0.0139692 0.0214735 0.0005 
141 1 0.00773896 0.00859003 0.0208107 0.00075 
148 1 0.00786029 0.0135357 0.0207459 0.00075 
1822 1 0.00323107 0.0102749 0.0211201 0.00075 
154 1 0.00754291 0.0101759 0.0207501 0.00075 
1865 1 0.000724245 0.0113429 0.0214012 0.0005 
1780 1 0.00451414 0.00888035 0.0213241 0.00075 
222 1 0.00663369 0.0139956 0.0205 0.0005 
1934 1 0.00323383 0.0128917 0.0220382 0.0005 
120 1 0.00520719 0.0140798 0.0207502 0.00075 
1893 1 0.00355906 0.0108774 0.0224543 0.00075 
142 1 0.0147201 0.00892671 0.0205 0.0005 
143 1 0.014572 0.00715363 0.0207451 0.0005 
144 1 0.0099187 0.0103043 0.0205 0.0005 
145 1 0.0137645 0.00863109 0.0205 0.0005 
147 1 0.0132384 0.00778067 0.0205 0.0005 
149 1 0.00947992 0.00769995 0.0212499 0.00125 
150 1 0.0120131 0.00790655 0.02075 0.00075 
151 1 0.0125614 0.00930293 0.0207545 0.00075 
152 1 0.0105273 0.00890079 0.0205158 0.0005 
153 1 0.0118525 0.0107812 0.02075 0.00075 
155 1 0.0122969 0.0122162 0.0207803 0.00075 
156 1 0.00970212 0.0115131 0.0205 0.0005 
158 1 0.00881202 0.0104428 0.0205 0.0005 
159 1 0.0140158 0.00964522 0.0205 0.0005 
160 1 0.0108766 0.0116819 0.0205 0.0005 
161 1 0.00891991 0.0141503 0.0204998 0.0005 
163 1 0.00832963 0.0117501 0.02075 0.00075 
164 1 0.00988683 0.0138965 0.0205 0.0005 
165 1 0.00941507 0.0130192 0.0206372 0.0005 
166 1 0.0110117 0.0133323 0.02075 0.00075 
167 1 0.00961403 0.00931615 0.0205 0.0005 
168 1 0.0125066 0.0137012 0.02075 0.00075 
169 1 0.0130957 0.0112958 0.0205 0.0005 
170 1 0.0145125 0.0112005 0.0209999 0.001 
171 1 0.00875515 0.00955926 0.0213828 0.00075 
172 1 0.0128493 0.0110984 0.021825 0.00075 
173 1 0.0134979 0.0126499 0.0205 0.0005 
174 1 0.0137965 0.0135196 0.0209377 0.0005 
175 1 0.0090443 0.0108041 0.0214032 0.0005 
176 1 0.00870277 0.0128052 0.0213107 0.0005 
177 1 0.00874265 0.0116069 0.0219215 0.0005 
179 1 0.0132619 0.0103073 0.0205 0.0005 
180 1 0.0129668 0.0129034 0.0219344 0.00075 
184 1 0.0153545 0.0100715 0.0215216 0.0005 
1640 1 0.0112984 0.00785663 0.0220678 0.00075 
1732 1 0.0108974 0.00973789 0.0217803 0.001 
181 1 0.015067 0.00986628 0.0205 0.0005 
191 1 0.0157486 0.00825684 0.02075 0.00075 
1614 1 0.0112374 0.0123294 0.0221693 0.001 
192 1 0.0158863 0.0108359 0.0205 0.0005 
1815 1 0.0155026 0.0108983 0.0220879 0.0005 
178 1 0.0168234 0.0129195 0.0205 0.0005 
80 1 0.0201654 0.00734343 0.02075 0.00075 
185 1 0.0234998 0.00875371 0.0205 0.0005 
186 1 0.0176485 0.0073081 0.0214999 0.0015 
187 1 0.0221866 0.00709132 0.0205 0.0005 
188 1 0.0232495 0.00783752 0.0213152 0.00075 
189 1 0.0234997 0.00976339 0.0205 0.0005 
190 1 0.0216251 0.00840735 0.0209999 0.001 
193 1 0.0179524 0.0133957 0.02075 0.00075 
194 1 0.0202179 0.00856704 0.0205 0.0005 
196 1 0.0202073 0.0100086 0.0214127 0.0005 
197 1 0.018843 0.009452 0.0209999 0.001 
198 1 0.0163153 0.0117396 0.0205 0.0005 
199 1 0.0173115 0.00900824 0.0205 0.0005 
200 1 0.023 0.0110864 0.0209999 0.001 
201 1 0.0162757 0.00967857 0.0207732 0.00075 
202 1 0.0207189 0.0095048 0.0205 0.0005 
203 1 0.0172591 0.0108377 0.02075 0.00075 
204 1 0.0173739 0.0120732 0.0205 0.0005 
205 1 0.0199812 0.0134604 0.0205 0.0005 
206 1 0.0208986 0.0112284 0.02075 0.00075 
207 1 0.0235 0.0124161 0.0205 0.0005 
208 1 0.0234708 0.00928535 0.0213778 0.0005 
209 1 0.0202279 0.009005 0.0213989 0.0005 
210 1 0.0223025 0.0126735 0.02075 0.00075 
211 1 0.019953 0.0103284 0.0205 0.0005 
212 1 0.0219264 0.0141255 0.02075 0.00075 
213 1 0.0204708 0.0124878 0.0205 0.0005 
214 1 0.0235 0.0134196 0.0205 0.0005 
215 1 0.0209754 0.0133512 0.0205 0.0005 
216 1 0.0215303 0.0100853 0.0214877 0.00075 
217 1 0.0172741 0.0121456 0.0216563 0.0005 
218 1 0.021197 0.0123437 0.0217087 0.00075 
219 1 0.0231273 0.0133949 0.0214498 0.0005 
221 1 0.0234986 0.012459 0.021499 0.0005 
324 1 0.019093 0.0139198 0.0205 0.0005 
1626 1 0.0190478 0.0117985 0.0212499 0.00125 
1740 1 0.0160451 0.011562 0.0215393 0.0005 
1916 1 0.0166109 0.00895968 0.02195 0.0005 
1691 1 0.0228183 0.00988603 0.0222618 0.00075 
1684 1 0.022024 0.0114756 0.0221093 0.0005 
1915 1 0.0234978 0.00850369 0.0223434 0.0005 
117 1 0.00340397 0.0144481 0.0205 0.0005 
121 1 0.00197228 0.014631 0.0210011 0.001 
123 1 0.00059985 0.0141747 0.0205 0.0005 
223 1 0.00470891 0.0154979 0.0205 0.0005 
224 1 0.00298661 0.0156497 0.0205 0.0005 
225 1 0.00236436 0.0164363 0.0205007 0.0005 
226 1 0.00643945 0.0155745 0.0212502 0.00125 
227 1 0.00147787 0.0159694 0.0205 0.0005 
228 1 0.000499999 0.0151697 0.0205 0.0005 
229 1 0.000499955 0.0161781 0.0204999 0.0005 
230 1 0.00468777 0.0177591 0.0205 0.0005 
231 1 0.00287428 0.0173061 0.0205 0.0005 
232 1 0.0012544 0.0175672 0.0212506 0.00125 
233 1 0.00623266 0.0177681 0.0205 0.0005 
234 1 0.00544866 0.0187291 0.02075 0.00075 
235 1 0.000500625 0.0196327 0.0205 0.0005 
236 1 0.00404963 0.0166949 0.02075 0.00075 
237 1 0.00560088 0.0174709 0.0212186 0.0005 
238 1 0.00506952 0.0166352 0.021497 0.0005 
239 1 0.00534766 0.0168208 0.0205 0.0005 
240 1 0.00266276 0.0182868 0.0205 0.0005 
241 1 0.00068305 0.0158164 0.021414 0.0005 
242 1 0.000502251 0.0202177 0.0213429 0.0005 
243 1 0.00344925 0.0189058 0.0205 0.0005 
244 1 0.00438072 0.0194084 0.0205 0.0005 
245 1 0.00608458 0.0171174 0.0220201 0.0005 
246 1 0.00331811 0.0198977 0.0205 0.0005 
247 1 0.00190568 0.0197985 0.0209999 0.001 
248 1 0.00489303 0.0195922 0.0214656 0.0005 
249 1 0.00702344 0.0204565 0.0205 0.0005 
250 1 0.00365776 0.0179275 0.0205 0.0005 
256 1 0.00738231 0.0188622 0.021249 0.00125 
255 1 0.00740586 0.0170921 0.0221957 0.00075 
392 1 0.00571072 0.0202151 0.02075 0.00075 
443 1 0.00426875 0.0206762 0.02075 0.00075 
1846 1 0.0036596 0.0194305 0.0216183 0.00075 
393 1 0.00304248 0.0208594 0.0205 0.0005 
1615 1 0.00514274 0.0181744 0.0218545 0.0005 
259 1 0.00778537 0.016967 0.0207499 0.00075 
395 1 0.000516826 0.0207555 0.0205 0.0005 
1616 1 0.0036341 0.0153649 0.0218506 0.001 
1697 1 0.00787944 0.0155365 0.0223067 0.0005 
1802 1 0.00464506 0.020366 0.0222326 0.0005 
411 1 0.000499999 0.0212274 0.0213814 0.0005 
390 1 0.00655931 0.0210869 0.0216278 0.00075 
444 1 0.0032326 0.0212286 0.0214109 0.0005 
1636 1 0.00226451 0.0212463 0.022202 0.00075 
1855 1 0.0111834 0.0145209 0.0213937 0.0005 
162 1 0.0105947 0.014603 0.0205074 0.0005 
146 1 0.00809411 0.0147384 0.0204999 0.0005 
252 1 0.0116337 0.0145601 0.0205 0.0005 
254 1 0.0131298 0.0147558 0.0205 0.0005 
257 1 0.0123433 0.0151118 0.0214038 0.00075 
258 1 0.0111518 0.0154363 0.0205 0.0005 
260 1 0.0136879 0.0148245 0.0213269 0.0005 
261 1 0.00801356 0.015735 0.0205 0.0005 
262 1 0.0141205 0.0153075 0.0205 0.0005 
263 1 0.0127877 0.0159387 0.0205 0.0005 
264 1 0.0102659 0.0184624 0.0205 0.0005 
265 1 0.00921525 0.0196224 0.0205002 0.0005 
267 1 0.0140483 0.016893 0.0212499 0.00125 
268 1 0.0112719 0.0183745 0.0204986 0.0005 
269 1 0.0101566 0.0155367 0.0205 0.0005 
270 1 0.0119026 0.0195709 0.0207539 0.00075 
271 1 0.0124678 0.0169391 0.0205 0.0005 
272 1 0.0147848 0.0195482 0.0205 0.0005 
273 1 0.0103543 0.0165173 0.0205 0.0005 
274 1 0.0106925 0.0193671 0.0205 0.0005 
275 1 0.00995046 0.0203025 0.0205001 0.0005 
276 1 0.0129833 0.020016 0.0214356 0.0005 
277 1 0.0109498 0.020339 0.0204999 0.0005 
278 1 0.0119312 0.0211624 0.02075 0.00075 
279 1 0.0141916 0.0211902 0.0204998 0.0005 
280 1 0.011538 0.0174047 0.0205 0.0005 
281 1 0.0124719 0.0181834 0.0207977 0.00075 
282 1 0.0128504 0.0203522 0.0205 0.0005 
283 1 0.0136373 0.0185342 0.020501 0.0005 
284 1 0.0131125 0.0193864 0.0205 0.0005 
285 1 0.0138221 0.0201133 0.0205 0.0005 
286 1 0.0137106 0.0193388 0.0213239 0.0005 
287 1 0.0124102 0.0190345 0.0220594 0.00075 
288 1 0.0120841 0.0163158 0.0211813 0.0005 
289 1 0.0149872 0.0205275 0.0205 0.0005 
290 1 0.0144392 0.0185938 0.0211064 0.0005 
291 1 0.00927622 0.0186244 0.0205024 0.0005 
292 1 0.0105426 0.0174993 0.0205 0.0005 
293 1 0.0147831 0.0210922 0.0212999 0.0005 
294 1 0.0133614 0.0209528 0.0211168 0.0005 
295 1 0.00861425 0.0178704 0.0204999 0.0005 
296 1 0.0152283 0.0184964 0.0204999 0.0005 
297 1 0.00914402 0.0163088 0.0207513 0.00075 
298 1 0.0112487 0.0187391 0.0214277 0.0005 
300 1 0.0114068 0.0177439 0.0214375 0.0005 
301 1 0.0113495 0.016419 0.0205 0.0005 
302 1 0.00815721 0.0159978 0.0214584 0.0005 
303 1 0.0119144 0.0203715 0.0217178 0.0005 
304 1 0.0108927 0.0168948 0.0212824 0.0005 
305 1 0.0134878 0.0184542 0.0218072 0.0005 
306 1 0.0150989 0.0156713 0.0205 0.0005 
307 1 0.0102124 0.0160194 0.0213788 0.0005 
308 1 0.0122619 0.0172221 0.0215688 0.0005 
309 1 0.0127809 0.0207837 0.0220437 0.0005 
310 1 0.0126359 0.01619 0.0220077 0.0005 
311 1 0.00954216 0.0174977 0.0205002 0.0005 
312 1 0.0103818 0.017835 0.0214281 0.0005 
314 1 0.011532 0.0165159 0.0219931 0.0005 
315 1 0.0104494 0.0199294 0.0218758 0.001 
316 1 0.0155206 0.0175399 0.0205006 0.0005 
317 1 0.0158005 0.0199457 0.0205 0.0005 
319 1 0.0111755 0.0157492 0.021458 0.0005 
320 1 0.0155914 0.0165423 0.0205 0.0005 
321 1 0.00917343 0.019102 0.0213789 0.0005 
322 1 0.0141083 0.0203651 0.0214283 0.0005 
323 1 0.00861383 0.0173139 0.0216198 0.0005 
331 1 0.0158372 0.0170951 0.0213403 0.0005 
1603 1 0.00926148 0.0150897 0.0205 0.0005 
325 1 0.0146671 0.0144157 0.0205 0.0005 
1637 1 0.00936806 0.0180517 0.0213263 0.0005 
1721 1 0.0155026 0.0167531 0.0222284 0.0005 
461 1 0.00856497 0.0210645 0.0212504 0.00125 
318 1 0.0112429 0.0187821 0.0224251 0.0005 
220 1 0.0207608 0.0143593 0.0211479 0.0005 
1729 1 0.0210098 0.0159509 0.0218907 0.0005 
326 1 0.020197 0.0148764 0.020501 0.0005 
327 1 0.0234565 0.0144519 0.0205 0.0005 
328 1 0.0188177 0.0147499 0.0209849 0.0005 
329 1 0.0179743 0.0152797 0.0217397 0.0005 
330 1 0.0176834 0.0145647 0.0211031 0.0005 
332 1 0.0234971 0.0143309 0.0214918 0.0005 
333 1 0.0180962 0.0152472 0.0205 0.0005 
334 1 0.0213327 0.0151793 0.0210653 0.0005 
336 1 0.0225354 0.0151881 0.0205 0.0005 
337 1 0.0169148 0.0160414 0.0209999 0.001 
338 1 0.0184103 0.0159852 0.0211133 0.0005 
339 1 0.0190891 0.0155813 0.0205 0.0005 
340 1 0.0181839 0.0171389 0.0214546 0.0005 
341 1 0.0180631 0.0168669 0.0205 0.0005 
342 1 0.017343 0.0188279 0.0205 0.0005 
343 1 0.0221932 0.0163642 0.02075 0.00075 
344 1 0.017948 0.0178603 0.0205 0.0005 
345 1 0.0192773 0.0168283 0.0207942 0.00075 
346 1 0.0235001 0.0176191 0.0205 0.0005 
347 1 0.0223152 0.0179258 0.0207529 0.00075 
348 1 0.0210405 0.0159505 0.0204999 0.0005 
349 1 0.0202004 0.0176183 0.0205 0.0005 
350 1 0.0183421 0.0187793 0.0205 0.0005 
351 1 0.0190344 0.0180218 0.0205 0.0005 
352 1 0.0234991 0.0186197 0.0205003 0.0005 
353 1 0.0194753 0.0182187 0.0216529 0.00075 
354 1 0.0167272 0.0177631 0.02075 0.00075 
355 1 0.0209636 0.0185763 0.02075 0.00075 
356 1 0.021316 0.0172192 0.0204999 0.0005 
357 1 0.0197317 0.0188474 0.0205 0.0005 
358 1 0.0234998 0.0154532 0.0205 0.0005 
359 1 0.0200428 0.0158818 0.0205 0.0005 
360 1 0.0184305 0.0189477 0.0214821 0.0005 
361 1 0.0203214 0.0199318 0.02075 0.00075 
362 1 0.0187684 0.0199274 0.0207505 0.00075 
363 1 0.0234999 0.0164533 0.0205 0.0005 
364 1 0.0224989 0.0200397 0.0215012 0.0015 
366 1 0.0205216 0.0167276 0.020856 0.0005 
367 1 0.0232488 0.0170353 0.0215778 0.00075 
368 1 0.0174633 0.0191974 0.021437 0.0005 
369 1 0.0235 0.0182512 0.0214311 0.0005 
370 1 0.0195602 0.0194655 0.021625 0.0005 
371 1 0.0177034 0.0181998 0.0214116 0.0005 
373 1 0.018327 0.0207885 0.0222311 0.0005 
374 1 0.0175493 0.0198118 0.0205 0.0005 
376 1 0.0161635 0.0188502 0.0204999 0.0005 
377 1 0.0229178 0.0154245 0.0216675 0.00075 
378 1 0.0206764 0.0208634 0.0215042 0.0005 
379 1 0.0166831 0.0195805 0.0209429 0.0005 
380 1 0.021372 0.0173649 0.0215065 0.0005 
381 1 0.0206445 0.0191017 0.0218423 0.0005 
382 1 0.0234997 0.0185487 0.0223862 0.0005 
383 1 0.0200587 0.0162862 0.0216245 0.0005 
385 1 0.0172004 0.0174608 0.0218727 0.0005 
386 1 0.0197711 0.0153078 0.0212982 0.0005 
388 1 0.0203226 0.0172834 0.0216899 0.0005 
391 1 0.0070357 0.0214666 0.0205 0.0005 
394 1 0.00511614 0.0217475 0.0204999 0.0005 
396 1 0.00203316 0.0215534 0.0207499 0.00075 
397 1 0.00540773 0.025415 0.0205 0.0005 
398 1 0.00616184 0.0240852 0.02075 0.00075 
399 1 0.00462446 0.0231922 0.0209999 0.001 
400 1 0.000750132 0.022331 0.02075 0.00075 
401 1 0.00124132 0.0255991 0.021367 0.0005 
402 1 0.000840174 0.0252979 0.0205 0.0005 
403 1 0.000499952 0.0262382 0.0205 0.0005 
404 1 0.00762099 0.022513 0.0205 0.0005 
405 1 0.0026069 0.0253108 0.0205 0.0005 
406 1 0.00574744 0.0263556 0.0205 0.0005 
407 1 0.00360867 0.0246019 0.02075 0.00075 
408 1 0.000564761 0.0235418 0.0205 0.0005 
409 1 0.00664507 0.0255052 0.0207502 0.00075 
410 1 0.00405926 0.0218871 0.0205 0.0005 
412 1 0.00186252 0.0241073 0.0209999 0.001 
413 1 0.00617524 0.0223686 0.0207499 0.00075 
415 1 0.00674308 0.0267259 0.0205 0.0005 
416 1 0.00259552 0.0267133 0.02075 0.00075 
417 1 0.00775283 0.0267226 0.0205 0.0005 
418 1 0.00483633 0.0268133 0.0205 0.0005 
419 1 0.000500034 0.0248672 0.0213361 0.0005 
420 1 0.00722488 0.027602 0.0205 0.0005 
421 1 0.00483469 0.0245931 0.0205 0.0005 
422 1 0.00054388 0.0243644 0.0221995 0.0005 
423 1 0.000501537 0.0263154 0.021497 0.0005 
424 1 0.00172004 0.0257732 0.0205 0.0005 
426 1 0.00293811 0.0227497 0.02075 0.00075 
427 1 0.00731724 0.0264496 0.0218127 0.00075 
428 1 0.00137093 0.0267294 0.0205 0.0005 
429 1 0.00441362 0.025525 0.0205 0.0005 
430 1 0.0034611 0.0258331 0.0205191 0.0005 
431 1 0.00604912 0.0264722 0.0214462 0.0005 
432 1 0.0051803 0.0212683 0.0213752 0.0005 
433 1 0.00170191 0.0276731 0.0205 0.0005 
434 1 0.00402075 0.0274414 0.0212176 0.0005 
435 1 0.00381867 0.0267749 0.0205 0.0005 
436 1 0.00597643 0.0229423 0.0221215 0.00075 
437 1 0.00111618 0.0278455 0.0212919 0.0005 
438 1 0.000500978 0.0272316 0.0207598 0.0005 
439 1 0.00200726 0.0273168 0.0219913 0.00075 
440 1 0.00484573 0.0269456 0.0214911 0.0005 
442 1 0.00689902 0.0275785 0.0214496 0.0005 
445 1 0.00585917 0.0275757 0.0207504 0.00075 
446 1 0.00708518 0.0230709 0.0213085 0.0005 
447 1 0.000499985 0.0277894 0.0220774 0.0005 
448 1 0.0077262 0.0246203 0.0205 0.0005 
450 1 0.00365168 0.0280319 0.0205 0.0005 
453 1 0.0073174 0.0236728 0.0205 0.0005 
454 1 0.00462354 0.0277932 0.0205 0.0005 
455 1 0.00775781 0.0279927 0.0217912 0.0005 
456 1 0.00367696 0.0221164 0.0215345 0.0005 
594 1 0.00265296 0.027982 0.0205 0.0005 
629 1 0.00384348 0.0272216 0.0221769 0.0005 
1594 1 0.00733151 0.0245102 0.0223441 0.00125 
522 1 0.00781558 0.0225454 0.0218051 0.0005 
463 1 0.00789473 0.0256241 0.0205 0.0005 
1824 1 0.00454598 0.0221982 0.0221263 0.0005 
615 1 0.0036817 0.0283435 0.0215008 0.0005 
1857 1 0.00107215 0.0218085 0.0223743 0.0005 
579 1 0.00798696 0.0282494 0.0204999 0.0005 
457 1 0.0153414 0.0218734 0.0215784 0.0005 
313 1 0.0112143 0.0213946 0.0217518 0.0005 
458 1 0.010159 0.0214763 0.021963 0.0005 
459 1 0.0133252 0.0217435 0.0205 0.0005 
460 1 0.0139676 0.0224687 0.0218187 0.0005 
462 1 0.0097169 0.0223425 0.0215883 0.0005 
464 1 0.00873166 0.0269332 0.0205 0.0005 
465 1 0.0104601 0.0214614 0.0207499 0.00075 
466 1 0.00875183 0.0233975 0.0209999 0.001 
467 1 0.00907881 0.0251087 0.0207499 0.00075 
468 1 0.0102155 0.0240979 0.0217072 0.00075 
469 1 0.00971805 0.0267601 0.0205 0.0005 
470 1 0.00991089 0.02421 0.0205 0.0005 
471 1 0.0132924 0.0244818 0.0205 0.0005 
473 1 0.013057 0.0254564 0.0204999 0.0005 
474 1 0.0144487 0.0245745 0.0205 0.0005 
475 1 0.0118622 0.0233642 0.0205 0.0005 
476 1 0.0124956 0.0223658 0.0205 0.0005 
477 1 0.0110609 0.0257878 0.0211447 0.0005 
478 1 0.0111666 0.0241121 0.0205 0.0005 
479 1 0.0128388 0.0219638 0.0216357 0.00075 
480 1 0.0113439 0.0265176 0.0205 0.0005 
481 1 0.0124025 0.0250487 0.0214836 0.00075 
482 1 0.0139106 0.0252645 0.0213926 0.00075 
483 1 0.0117878 0.025537 0.0205 0.0005 
484 1 0.0122197 0.0242986 0.0205 0.0005 
485 1 0.0123263 0.0237129 0.0213246 0.0005 
486 1 0.0149131 0.025478 0.0205 0.0005 
487 1 0.0104284 0.022961 0.02075 0.00075 
488 1 0.01515 0.0237532 0.0205 0.0005 
489 1 0.0108384 0.0250566 0.0205 0.0005 
490 1 0.0133386 0.0232568 0.02075 0.00075 
491 1 0.0141338 0.0261106 0.0205 0.0005 
492 1 0.0103137 0.0259559 0.0205 0.0005 
493 1 0.0106222 0.0272141 0.0205 0.0005 
494 1 0.0141922 0.0263817 0.0221605 0.0005 
495 1 0.0128422 0.0270227 0.02125 0.00125 
496 1 0.0153099 0.0245857 0.0210305 0.0005 
497 1 0.0147316 0.0269139 0.0205 0.0005 
498 1 0.0147017 0.0262705 0.0213073 0.0005 
499 1 0.0145383 0.027198 0.0216436 0.0005 
500 1 0.0158178 0.0263482 0.0207499 0.00075 
501 1 0.0146173 0.0224682 0.0207499 0.00075 
502 1 0.0143529 0.0238569 0.0211898 0.0005 
503 1 0.0151453 0.0254129 0.0215677 0.0005 
504 1 0.0119489 0.0227787 0.0213075 0.0005 
505 1 0.0103362 0.0266741 0.0212928 0.0005 
506 1 0.0154153 0.0274593 0.0212404 0.0005 
507 1 0.0107775 0.0278854 0.0213437 0.0005 
508 1 0.0133085 0.0242818 0.0218771 0.0005 
509 1 0.0113351 0.0235795 0.0213491 0.0005 
510 1 0.00925204 0.0260528 0.0215507 0.0005 
511 1 0.0156141 0.0266827 0.0219532 0.0005 
512 1 0.00908936 0.024662 0.0219172 0.0005 
513 1 0.00828483 0.0257264 0.0214917 0.0005 
514 1 0.0114947 0.0223582 0.0205 0.0005 
515 1 0.0159596 0.0251302 0.0205 0.0005 
516 1 0.0154458 0.0232914 0.0220553 0.001 
517 1 0.0114429 0.0277956 0.0205 0.0005 
518 1 0.00941024 0.027716 0.0205015 0.0005 
519 1 0.0144474 0.0281058 0.02075 0.00075 
520 1 0.0150305 0.0279828 0.0220203 0.0005 
523 1 0.0147563 0.0246235 0.0220533 0.0005 
1723 1 0.0110852 0.0225611 0.0221865 0.00075 
1708 1 0.00922674 0.0277583 0.0219916 0.001 
375 1 0.0169569 0.0212813 0.0212498 0.00125 
525 1 0.0160101 0.022736 0.0205 0.0005 
526 1 0.01924 0.0213513 0.02075 0.00075 
527 1 0.0214253 0.0213979 0.0204999 0.0005 
528 1 0.0198659 0.021646 0.0217911 0.0005 
529 1 0.0189708 0.0221078 0.0217175 0.0005 
530 1 0.0166163 0.0252455 0.0218492 0.001 
532 1 0.0204436 0.0216067 0.0205 0.0005 
533 1 0.0210631 0.0217739 0.0213528 0.0005 
534 1 0.0234999 0.0217693 0.0215928 0.0005 
535 1 0.016082 0.027544 0.0204999 0.0005 
536 1 0.0234989 0.0214653 0.0205 0.0005 
538 1 0.0223297 0.0224966 0.0209999 0.001 
539 1 0.0202039 0.0248639 0.0205 0.0005 
540 1 0.0164408 0.0238962 0.0207494 0.00075 
541 1 0.0197121 0.025735 0.0205 0.0005 
542 1 0.0183643 0.0226162 0.02075 0.00075 
543 1 0.0216909 0.0237584 0.0205 0.0005 
544 1 0.0235 0.0261204 0.0205 0.0005 
545 1 0.0185026 0.025541 0.02075 0.00075 
546 1 0.02325 0.0239638 0.0207499 0.00075 
547 1 0.023498 0.0231584 0.0216731 0.0005 
548 1 0.0235001 0.0272344 0.0205 0.0005 
549 1 0.0228984 0.0253301 0.0212589 0.00075 
550 1 0.0219025 0.0255635 0.0205 0.0005 
551 1 0.0181065 0.0240939 0.02075 0.00075 
552 1 0.0222111 0.0246124 0.0205 0.0005 
553 1 0.0171222 0.0228605 0.0205 0.0005 
554 1 0.01694 0.025857 0.0205 0.0005 
555 1 0.0172535 0.023184 0.0217892 0.00075 
556 1 0.0224093 0.0266781 0.0207513 0.00075 
557 1 0.0171705 0.0248838 0.0205 0.0005 
558 1 0.0201829 0.0232829 0.0212499 0.00125 
559 1 0.0212067 0.0246446 0.0205 0.0005 
560 1 0.0184361 0.02466 0.0220994 0.00075 
561 1 0.01764 0.0272749 0.0212499 0.00125 
562 1 0.0190915 0.026648 0.0204999 0.0005 
563 1 0.0208184 0.0257895 0.0215117 0.001 
564 1 0.019385 0.0261982 0.0213434 0.0005 
565 1 0.0214853 0.022647 0.0222306 0.0005 
566 1 0.0192418 0.0245535 0.0205 0.0005 
567 1 0.0235 0.0266287 0.0213612 0.0005 
568 1 0.0235 0.025992 0.0221324 0.0005 
569 1 0.0195188 0.0250664 0.0213125 0.0005 
570 1 0.0185107 0.0259227 0.0219404 0.0005 
571 1 0.0225116 0.0280755 0.0205 0.0005 
572 1 0.0216391 0.0272012 0.0215852 0.0005 
573 1 0.0216224 0.0276163 0.0205 0.0005 
574 1 0.0200656 0.0278938 0.0212499 0.00125 
575 1 0.0184987 0.0234023 0.0217145 0.0005 
576 1 0.0194468 0.0256105 0.02215 0.0005 
577 1 0.0234773 0.0277033 0.021383 0.0005 
578 1 0.0190663 0.0267475 0.0221159 0.0005 
1630 1 0.01996 0.0247526 0.0221734 0.0005 
718 1 0.0235 0.0282344 0.0204999 0.0005 
537 1 0.0165063 0.0266302 0.0224168 0.0005 
1746 1 0.021884 0.0283338 0.0220543 0.00075 
1951 1 0.0184739 0.0225518 0.0224639 0.0005 
451 1 0.000749939 0.0289108 0.02075 0.00075 
606 1 0.00227322 0.0287947 0.0219568 0.00075 
580 1 0.000511617 0.0315145 0.0205 0.0005 
581 1 0.00363348 0.031176 0.0205 0.0005 
582 1 0.00169599 0.0332576 0.0207626 0.00075 
583 1 0.00309376 0.0291525 0.0207509 0.00075 
584 1 0.00536904 0.0328693 0.0207499 0.00075 
585 1 0.000499884 0.0332234 0.0214583 0.0005 
586 1 0.00182408 0.0299614 0.02075 0.00075 
587 1 0.00287151 0.0329234 0.0205 0.0005 
588 1 0.00229333 0.0316299 0.0209999 0.001 
589 1 0.00195621 0.0286993 0.0205 0.0005 
590 1 0.000500123 0.03011 0.0205004 0.0005 
591 1 0.00646047 0.0334307 0.0204999 0.0005 
592 1 0.00355624 0.0336522 0.0205 0.0005 
593 1 0.00454652 0.0337919 0.0205 0.0005 
595 1 0.00485804 0.031158 0.0207499 0.00075 
596 1 0.00514876 0.0292995 0.0204999 0.0005 
597 1 0.00635691 0.031211 0.0207499 0.00075 
598 1 0.0041301 0.0301563 0.0205 0.0005 
599 1 0.00652576 0.0324281 0.0205 0.0005 
600 1 0.00739044 0.0342293 0.02075 0.00075 
601 1 0.00427187 0.0288185 0.0205 0.0005 
602 1 0.0067298 0.0293109 0.0212499 0.00125 
603 1 0.00391146 0.0306913 0.0218156 0.00075 
604 1 0.00504577 0.0300068 0.0211993 0.0005 
605 1 0.00492518 0.0284732 0.0215081 0.00075 
607 1 0.00710636 0.0319054 0.0214725 0.0005 
608 1 0.00563346 0.0306929 0.021628 0.0005 
609 1 0.00075024 0.0320279 0.021723 0.00075 
610 1 0.00313649 0.0303951 0.0208796 0.0005 
611 1 0.00558307 0.0318734 0.0214744 0.0005 
612 1 0.000588624 0.0325117 0.0205 0.0005 
613 1 0.00395843 0.0323588 0.0207502 0.00075 
614 1 0.000764933 0.0305299 0.0216484 0.00075 
616 1 0.00419373 0.0294852 0.0212432 0.0005 
617 1 0.000749999 0.029147 0.0222312 0.00075 
618 1 0.00162436 0.0344776 0.0205 0.0005 
620 1 0.00199003 0.0304578 0.0218858 0.0005 
621 1 0.00482731 0.0295836 0.0220786 0.0005 
622 1 0.00737817 0.0318868 0.0204999 0.0005 
623 1 0.0070123 0.0309537 0.0217833 0.0005 
624 1 0.00263456 0.0329923 0.0215451 0.0005 
625 1 0.00744488 0.0342696 0.0219987 0.0005 
626 1 0.00741627 0.032886 0.0205 0.0005 
627 1 0.0028551 0.0299767 0.0217437 0.0005 
628 1 0.000499988 0.0335087 0.0205 0.0005 
631 1 0.00564442 0.0343438 0.0207501 0.00075 
632 1 0.00114797 0.0342537 0.021742 0.00075 
633 1 0.00650765 0.0343193 0.0216538 0.0005 
634 1 0.000500074 0.0345086 0.0205 0.0005 
635 1 0.00485047 0.0338266 0.0215857 0.0005 
766 1 0.00654906 0.0351692 0.0204999 0.0005 
751 1 0.00380958 0.0346299 0.0205012 0.0005 
789 1 0.00746056 0.0352134 0.0215175 0.0005 
1659 1 0.00685193 0.033117 0.0216447 0.00075 
1618 1 0.00284732 0.0343576 0.0205 0.0005 
1675 1 0.00316609 0.0322961 0.0220283 0.0005 
702 1 0.007967 0.0312124 0.0219307 0.0005 
776 1 0.00452798 0.0346882 0.0211944 0.0005 
785 1 0.00231724 0.035129 0.0208526 0.0005 
1787 1 0.00182907 0.0319387 0.0223924 0.0005 
1596 1 0.00486718 0.0350132 0.0220775 0.0005 
2038 1 0.00352773 0.0344934 0.0223916 0.00075 
636 1 0.00512159 0.0307478 0.0224853 0.0005 
2139 1 0.00243532 0.033922 0.0219837 0.0005 
644 1 0.00801078 0.0308045 0.02075 0.00075 
521 1 0.0102082 0.0287092 0.0213546 0.0005 
637 1 0.00879233 0.0341289 0.0205 0.0005 
638 1 0.0129382 0.0288882 0.0219821 0.00075 
639 1 0.00904477 0.0286467 0.0205 0.0005 
640 1 0.00837051 0.0295801 0.0205 0.0005 
641 1 0.0128844 0.0318133 0.0207501 0.00075 
642 1 0.0106597 0.0314754 0.0205 0.0005 
643 1 0.011667 0.0319467 0.0205 0.0005 
645 1 0.0111787 0.0328193 0.0204999 0.0005 
646 1 0.0122195 0.0328418 0.0205 0.0005 