ITEM: TIMESTEP
190000
ITEM: NUMBER OF ATOMS
1764
ITEM: BOX BOUNDS mm mm mm
-2.4e-06 0.0240024
-7.8e-06 0.0780078
-3e-06 0.030003
ITEM: ATOMS id type x y z radius 
324 1 0.00767812 0.00383575 0.0219997 0.002 
291 1 0.0025826 0.00151153 0.0214997 0.0015 
368 1 0.000527288 0.00104598 0.0205 0.0005 
784 1 0.00534266 0.00307993 0.02075 0.00075 
32 1 0.00527921 0.000500211 0.0205 0.0005 
241 1 0.00435698 0.00219355 0.0205 0.0005 
815 1 0.000910554 0.00196961 0.0205 0.0005 
448 1 0.00364495 0.00290148 0.0205 0.0005 
300 1 0.000499997 0.000499989 0.0213373 0.0005 
442 1 0.00100294 0.00341523 0.0209999 0.001 
816 1 0.00568345 0.00503009 0.0205 0.0005 
710 1 0.00408718 0.000502181 0.0205 0.0005 
527 1 0.00050015 0.00474078 0.0205 0.0005 
256 1 0.000500429 0.00574154 0.0205 0.0005 
870 1 0.00774974 0.00586505 0.0205 0.0005 
100 1 0.00437736 0.00251907 0.0214452 0.0005 
153 1 0.00462974 0.00128286 0.02081 0.0005 
486 1 0.00360984 0.00502649 0.0223063 0.00225 
722 1 0.00150038 0.00474739 0.0205 0.0005 
864 1 0.00438499 0.000518312 0.0214544 0.0005 
503 1 0.000499995 0.0045866 0.0217944 0.0005 
561 1 0.00582069 0.00165771 0.02075 0.00075 
501 1 0.0056753 0.000598274 0.0214233 0.0005 
64 1 0.00629729 0.00630421 0.0209998 0.001 
954 1 0.00628429 0.000512152 0.0205 0.0005 
274 1 0.00763101 0.00686122 0.0205 0.0005 
75 1 0.00148793 0.0064668 0.0207499 0.00075 
1195 1 0.00770033 0.00134445 0.0217923 0.0005 
390 1 0.000500388 0.00553871 0.021488 0.0005 
842 1 0.00623445 0.00584536 0.0224265 0.0005 
887 1 0.00668443 0.00681422 0.0223601 0.0005 
380 1 0.00501177 0.00698261 0.0205 0.0005 
998 1 0.000993527 0.00649547 0.0221657 0.00075 
1359 1 0.00285076 0.00699964 0.0205 0.0005 
1492 1 0.000499926 0.00533539 0.0224722 0.0005 
121 1 0.00861291 0.00636984 0.0205 0.0005 
228 1 0.00890893 0.00541434 0.0205003 0.0005 
490 1 0.00967932 0.00414043 0.0205 0.0005 
199 1 0.011771 0.00260388 0.0204997 0.0005 
395 1 0.0107859 0.00243278 0.0204999 0.0005 
474 1 0.0137863 0.00136276 0.02075 0.00075 
282 1 0.0109475 0.00144594 0.0205 0.0005 
590 1 0.0105469 0.000506481 0.0205007 0.0005 
176 1 0.0127732 0.000526061 0.0205 0.0005 
289 1 0.0115467 0.000499655 0.0204996 0.0005 
362 1 0.00954724 0.000526531 0.0204999 0.0005 
370 1 0.00805048 0.000750044 0.02075 0.00075 
783 1 0.0106136 0.00367784 0.0204999 0.0005 
51 1 0.0131179 0.00261563 0.0205 0.0005 
233 1 0.0097573 0.00175302 0.0207644 0.00075 
217 1 0.010557 0.00467616 0.0205 0.0005 
636 1 0.011895 0.00609077 0.0205 0.0005 
549 1 0.0101209 0.00438485 0.0213632 0.0005 
126 1 0.0122416 0.00427059 0.0214994 0.0015 
307 1 0.00857087 0.0020449 0.0205 0.0005 
676 1 0.0102483 0.000751669 0.0218054 0.00075 
209 1 0.0137307 0.00545043 0.0205 0.0005 
730 1 0.00867712 0.0016186 0.0213983 0.0005 
764 1 0.0102649 0.00623005 0.0212499 0.00125 
311 1 0.0135653 0.00637921 0.0217476 0.001 
192 1 0.0149054 0.00585926 0.0207499 0.00075 
763 1 0.00947607 0.00295962 0.0204999 0.0005 
66 1 0.0139702 0.00447831 0.0205 0.0005 
61 1 0.014348 0.004826 0.0213629 0.0005 
108 1 0.0147154 0.00306768 0.0212499 0.00125 
581 1 0.0118679 0.0062804 0.0224448 0.00075 
89 1 0.00909414 0.000499919 0.0213907 0.0005 
155 1 0.0121023 0.00150427 0.0218196 0.00125 
178 1 0.0151625 0.000762215 0.02075 0.00075 
364 1 0.0102504 0.00299301 0.0214804 0.00075 
161 1 0.0232499 0.000749994 0.02075 0.00075 
159 1 0.0227945 0.00338667 0.0204999 0.0005 
204 1 0.0235001 0.00409505 0.0204999 0.0005 
219 1 0.0213901 0.000999876 0.0209997 0.001 
333 1 0.02325 0.00405275 0.0217238 0.00075 
142 1 0.02325 0.00224997 0.0207504 0.00075 
200 1 0.0203527 0.00306191 0.02075 0.00075 
340 1 0.0221825 0.00445687 0.02075 0.00075 
452 1 0.0235001 0.00509489 0.0204998 0.0005 
518 1 0.0196673 0.0016971 0.02075 0.00075 
185 1 0.0165228 0.00479479 0.0212499 0.00125 
31 1 0.0171699 0.00150254 0.0214998 0.0015 
123 1 0.0227961 0.00100003 0.0224219 0.001 
273 1 0.021893 0.00295291 0.0216173 0.001 
113 1 0.0175887 0.00356133 0.0205 0.0005 
544 1 0.0187563 0.00463028 0.0209999 0.001 
577 1 0.0232471 0.00568886 0.0215699 0.00075 
652 1 0.0179824 0.00561322 0.0218275 0.0005 
290 1 0.0187688 0.00289827 0.02075 0.00075 
281 1 0.0200456 0.00391655 0.0219438 0.00075 
190 1 0.0178255 0.0062274 0.0207499 0.00075 
57 1 0.0207643 0.00603227 0.0215044 0.0015 
143 1 0.0225272 0.00590998 0.0205 0.0005 
853 1 0.0190347 0.00603235 0.0205 0.0005 
106 1 0.0223526 0.00489629 0.0219366 0.0005 
1012 1 0.0186633 0.0067411 0.0218864 0.00075 
109 1 0.0193173 0.00704478 0.0205 0.0005 
588 1 0.00392335 0.00710156 0.0205 0.0005 
360 1 0.00634457 0.0120744 0.0205 0.0005 
154 1 0.00493231 0.00843103 0.0207499 0.00075 
13 1 0.000499948 0.00719048 0.0205 0.0005 
879 1 0.00643028 0.00789322 0.0205 0.0005 
137 1 0.000806725 0.00814248 0.0205 0.0005 
44 1 0.00510187 0.00995216 0.02075 0.00075 
401 1 0.00585672 0.0115292 0.0221004 0.00125 
1166 1 0.00571274 0.00773366 0.0218243 0.00075 
1234 1 0.00525279 0.00891191 0.02187 0.0005 
323 1 0.0025815 0.00913831 0.0219988 0.002 
820 1 0.000510793 0.00909817 0.0205002 0.0005 
1067 1 0.00709209 0.0127422 0.0205 0.0005 
713 1 0.00241098 0.011141 0.0205 0.0005 
881 1 0.000524314 0.0100985 0.0205 0.0005 
911 1 0.00420419 0.0110159 0.0223618 0.0005 
943 1 0.0032053 0.0117546 0.0205 0.0005 
673 1 0.00434043 0.0112579 0.02075 0.00075 
174 1 0.000999455 0.0114827 0.0209995 0.001 
447 1 0.00626705 0.00895432 0.0205 0.0005 
1070 1 0.00749051 0.00742201 0.0216232 0.00075 
737 1 0.00447573 0.0126855 0.0205 0.0005 
646 1 0.0015339 0.0128412 0.0205 0.0005 
508 1 0.000530707 0.0128407 0.0205 0.0005 
888 1 0.00388312 0.0141681 0.0205 0.0005 
611 1 0.00736669 0.0137425 0.0205 0.0005 
70 1 0.000504296 0.0138647 0.0205 0.0005 
35 1 0.00783376 0.00962853 0.0218979 0.0015 
872 1 0.00746099 0.0115391 0.02075 0.00075 
439 1 0.00571434 0.0138757 0.0212499 0.00125 
891 1 0.00750073 0.0081627 0.020512 0.0005 
171 1 0.0121692 0.0072844 0.02075 0.00075 
275 1 0.0129092 0.00860061 0.02075 0.00075 
46 1 0.00869713 0.00759356 0.0207495 0.00075 
556 1 0.0124989 0.0102176 0.02075 0.00075 
287 1 0.0110745 0.0106369 0.0205 0.0005 
865 1 0.0138034 0.0112565 0.0205 0.0005 
756 1 0.0108147 0.00891222 0.0215103 0.0015 
318 1 0.0128085 0.00792032 0.0220863 0.00075 
686 1 0.00926547 0.00968933 0.0205003 0.0005 
10 1 0.0147402 0.009267 0.0214202 0.0005 
569 1 0.011588 0.0108509 0.021331 0.0005 
252 1 0.00855835 0.0108865 0.0205 0.0005 
188 1 0.0144391 0.0130351 0.0214999 0.0015 
772 1 0.0117393 0.0113867 0.0205 0.0005 
709 1 0.00981823 0.0107839 0.0207512 0.00075 
1061 1 0.0107249 0.0116656 0.0205 0.0005 
110 1 0.0124371 0.0121034 0.0205 0.0005 
1118 1 0.00959466 0.0106544 0.022014 0.0005 
59 1 0.011391 0.0124178 0.0205 0.0005 
974 1 0.0121235 0.0133209 0.0205 0.0005 
734 1 0.0117942 0.0120192 0.0217278 0.00075 
968 1 0.0109224 0.0109903 0.0223935 0.00075 
62 1 0.00930779 0.0131821 0.0220014 0.002 
1238 1 0.00929805 0.00763084 0.0218512 0.0005 
1028 1 0.0124717 0.0102961 0.022256 0.00075 
1653 1 0.0131197 0.00936964 0.0217172 0.0005 
714 1 0.0163036 0.0120849 0.0205 0.0005 
80 1 0.0163527 0.0106701 0.0209999 0.001 
342 1 0.0168808 0.0117812 0.022328 0.00075 
319 1 0.0216058 0.0075428 0.0204998 0.0005 
6 1 0.0230001 0.00732792 0.0210089 0.001 
293 1 0.0189983 0.0105798 0.0217499 0.00175 
735 1 0.0212262 0.0104098 0.0214355 0.0005 
308 1 0.020953 0.0087966 0.0210009 0.001 
49 1 0.0181328 0.00889218 0.0205 0.0005 
146 1 0.0200971 0.00767097 0.0205 0.0005 
578 1 0.0229999 0.00933298 0.0210001 0.001 
139 1 0.0171964 0.0131289 0.0211038 0.001 
90 1 0.0194322 0.00812545 0.0215588 0.00075 
71 1 0.0209136 0.0102458 0.0205 0.0005 
659 1 0.0182561 0.00766473 0.0207499 0.00075 
967 1 0.0173459 0.00965486 0.0205 0.0005 
130 1 0.0217838 0.0120548 0.0205 0.0005 
41 1 0.0221667 0.0108744 0.0207499 0.00075 
231 1 0.0234997 0.0109127 0.0205 0.0005 
279 1 0.0235 0.00833486 0.0220019 0.0005 
693 1 0.0217541 0.00775608 0.0217258 0.0005 
725 1 0.0232501 0.0112092 0.0217318 0.00075 
697 1 0.0210007 0.0112499 0.0205 0.0005 
330 1 0.0229862 0.0123116 0.0207498 0.00075 
78 1 0.0232325 0.0135111 0.0204999 0.0005 
741 1 0.0184261 0.0139775 0.0215739 0.0005 
800 1 0.0206582 0.0121903 0.0205002 0.0005 
538 1 0.0234857 0.0128163 0.0218435 0.0005 
1236 1 0.0198074 0.0126631 0.0214809 0.0005 
812 1 0.0225635 0.0122111 0.0220272 0.0005 
944 1 0.0234983 0.0138229 0.0214288 0.0005 
794 1 0.0186248 0.0129217 0.0215766 0.0005 
592 1 0.0183572 0.0123589 0.0205 0.0005 
910 1 0.0218243 0.00965165 0.0222579 0.00075 
450 1 0.0182736 0.0140003 0.0205 0.0005 
523 1 0.0188859 0.0132091 0.0205 0.0005 
956 1 0.0199157 0.0128617 0.0205 0.0005 
350 1 0.0214629 0.0137966 0.0214995 0.0015 
1193 1 0.0193999 0.0137129 0.0214272 0.0005 
345 1 0.0197325 0.0138863 0.0205001 0.0005 
695 1 0.00749287 0.0149647 0.02075 0.00075 
550 1 0.000521393 0.0190708 0.0205067 0.0005 
1 1 0.00620263 0.0157504 0.02075 0.00075 
529 1 0.00124995 0.0158453 0.02125 0.00125 
269 1 0.00556509 0.0182177 0.0215111 0.00125 
19 1 0.00382795 0.0160717 0.0212536 0.00125 
1077 1 0.00530465 0.0166649 0.0205 0.0005 
54 1 0.00775072 0.0167156 0.0210005 0.001 
877 1 0.00667198 0.0203741 0.0204997 0.0005 
1060 1 0.00634748 0.0166542 0.0216022 0.0005 
1004 1 0.00416001 0.019668 0.02075 0.00075 
1293 1 0.00305782 0.0207104 0.0219258 0.0005 
1196 1 0.00736109 0.0173507 0.0224804 0.0005 
678 1 0.00100495 0.0208662 0.0209999 0.001 
1570 1 0.00649049 0.0193907 0.0205001 0.0005 
688 1 0.000500736 0.0199955 0.0222373 0.0005 
896 1 0.00560289 0.0198877 0.0205 0.0005 
1660 1 0.00367674 0.0176436 0.0205003 0.0005 
972 1 0.00574994 0.0155849 0.0222883 0.00075 
223 1 0.00225764 0.0185816 0.0219739 0.00175 
700 1 0.00330111 0.021058 0.02075 0.00075 
748 1 0.00715908 0.0157407 0.0220394 0.0005 
189 1 0.0156885 0.014361 0.0205017 0.0005 
786 1 0.00842366 0.0155034 0.0216127 0.0005 
180 1 0.00854545 0.0196752 0.0219998 0.002 
221 1 0.0102353 0.0166215 0.0214999 0.0015 
118 1 0.012404 0.0149408 0.0212499 0.00125 
198 1 0.0150846 0.0180029 0.0212499 0.00125 
717 1 0.0123724 0.0183744 0.0214768 0.0005 
1232 1 0.00877147 0.0152094 0.0205 0.0005 
934 1 0.012966 0.0193541 0.02075 0.00075 
1310 1 0.0128658 0.0170854 0.0205983 0.0005 
1212 1 0.012803 0.018088 0.0205 0.0005 
1338 1 0.0138755 0.0168839 0.0205 0.0005 
838 1 0.0131617 0.0171749 0.0220741 0.001 
624 1 0.0116266 0.0176833 0.0205 0.0005 
1035 1 0.0109854 0.0191273 0.0205 0.0005 
43 1 0.014676 0.0150347 0.0205 0.0005 
1164 1 0.0117163 0.0212082 0.0207675 0.00075 
1592 1 0.0119429 0.0191008 0.0220211 0.0005 
1577 1 0.0150578 0.0206969 0.0206616 0.0005 
1636 1 0.0126094 0.0212018 0.0222774 0.001 
1697 1 0.0107106 0.0211954 0.0216798 0.0005 
947 1 0.0178942 0.018724 0.0205 0.0005 
542 1 0.0177513 0.0147933 0.0222399 0.00075 
272 1 0.0235002 0.0144744 0.0204999 0.0005 
260 1 0.0168575 0.0165768 0.0209999 0.001 
591 1 0.0227857 0.0154683 0.0207527 0.00075 
465 1 0.0183737 0.0162747 0.0205134 0.0005 
719 1 0.0190317 0.014962 0.0207568 0.00075 
628 1 0.023456 0.0166994 0.0205 0.0005 
42 1 0.0231687 0.0178901 0.02075 0.00075 
747 1 0.021563 0.0155267 0.0205002 0.0005 
813 1 0.0209604 0.016423 0.0205044 0.0005 
787 1 0.0199807 0.0166601 0.0205134 0.0005 
492 1 0.0209119 0.0174232 0.0205 0.0005 
238 1 0.0234922 0.019085 0.0205177 0.0005 
1216 1 0.0185026 0.0160893 0.0217846 0.00075 
1230 1 0.0173158 0.0148421 0.02075 0.00075 
566 1 0.0217588 0.0185227 0.02075 0.00075 
1333 1 0.0223144 0.0169923 0.0205693 0.0005 
1091 1 0.0200316 0.0179072 0.0205 0.0005 
1398 1 0.0207652 0.0202419 0.0205 0.0005 
1189 1 0.0234998 0.0148184 0.02157 0.0005 
1427 1 0.0205564 0.0154355 0.0205 0.0005 
898 1 0.0211275 0.0176809 0.0214419 0.0005 
1253 1 0.0196916 0.0149291 0.021818 0.0005 
1452 1 0.0203754 0.0194188 0.0213716 0.00075 
1488 1 0.0190269 0.0191931 0.0207507 0.00075 
1124 1 0.0235 0.0161709 0.0215 0.0005 
1137 1 0.021743 0.018335 0.0220399 0.0005 
1184 1 0.0234973 0.0180575 0.022175 0.0005 
1020 1 0.0224853 0.0205232 0.0214998 0.0015 
1401 1 0.0216348 0.0163236 0.0218577 0.001 
1311 1 0.0160471 0.0202628 0.0205 0.0005 
1298 1 0.0202211 0.016106 0.0213758 0.0005 
1170 1 0.0231756 0.0168846 0.0224736 0.00075 
639 1 0.0231051 0.0145606 0.0224523 0.0005 
482 1 0.000560486 0.0233753 0.0205 0.0005 
12 1 0.000755496 0.0249569 0.02075 0.00075 
600 1 0.00630837 0.0219125 0.02125 0.00125 
952 1 0.00518853 0.0251819 0.0205 0.0005 
1081 1 0.00752143 0.025087 0.0205 0.0005 
1416 1 0.0024614 0.0220231 0.0205 0.0005 
904 1 0.00588328 0.0262255 0.0205 0.0005 
1439 1 0.00596028 0.0242098 0.02075 0.00075 
831 1 0.0041577 0.0264981 0.0209999 0.001 
534 1 0.000883539 0.0266615 0.0209281 0.00075 
1423 1 0.00373483 0.0281672 0.0210836 0.0005 
1406 1 0.00317486 0.0275459 0.0205175 0.0005 
483 1 0.000500856 0.0280848 0.0205 0.0005 
1394 1 0.00776804 0.0236401 0.0209999 0.001 
1483 1 0.00444885 0.0220304 0.0219978 0.0005 
1512 1 0.00165364 0.0270315 0.0220395 0.0005 
752 1 0.00445328 0.0282715 0.022065 0.0005 
780 1 0.0118985 0.0244568 0.0205006 0.0005 
353 1 0.0132808 0.0237338 0.0205 0.0005 
978 1 0.00807321 0.0260792 0.0205 0.0005 
1264 1 0.0102676 0.0215111 0.0205 0.0005 
1294 1 0.0108227 0.024148 0.0205 0.0005 
1180 1 0.011245 0.0224561 0.0205 0.0005 
1208 1 0.00979479 0.0265353 0.0205 0.0005 
1462 1 0.0111682 0.0261354 0.0205 0.0005 
1467 1 0.0127218 0.023056 0.0211457 0.0005 
1343 1 0.00967741 0.0230152 0.0207497 0.00075 
1552 1 0.0117332 0.0236476 0.022141 0.00075 
1563 1 0.0147943 0.025254 0.0207891 0.0005 
1602 1 0.0124349 0.026069 0.0206638 0.0005 
1621 1 0.0123939 0.0250133 0.0220167 0.00075 
861 1 0.0128079 0.0273087 0.0207496 0.00075 
1643 1 0.00886251 0.0265242 0.0213891 0.0005 
1539 1 0.0133938 0.0225601 0.0205 0.0005 
1330 1 0.012643 0.0272416 0.0219873 0.0005 
1192 1 0.0140435 0.0275549 0.0205 0.0005 
1041 1 0.0108133 0.0280266 0.0214998 0.0015 
982 1 0.0157974 0.0213773 0.0205 0.0005 
1350 1 0.0158604 0.0229408 0.0205 0.0005 
144 1 0.0161137 0.0249664 0.0217007 0.001 
152 1 0.0172864 0.0263312 0.0205 0.0005 
1292 1 0.0187398 0.0245962 0.0207558 0.00075 
512 1 0.0205542 0.0278955 0.0205 0.0005 
862 1 0.0196228 0.025735 0.0205 0.0005 
957 1 0.0234732 0.0220526 0.0205101 0.0005 
1288 1 0.0189252 0.0230523 0.0205 0.0005 
1105 1 0.0209999 0.0215896 0.0205 0.0005 
1320 1 0.0193916 0.0218937 0.02075 0.00075 
1048 1 0.0200017 0.023705 0.0207528 0.00075 
1415 1 0.0214086 0.0239058 0.0205 0.0005 
1087 1 0.0234809 0.0263927 0.0204993 0.0005 
1176 1 0.0219309 0.0271252 0.0214739 0.00075 
1269 1 0.0226145 0.0246945 0.0207689 0.00075 
1507 1 0.023383 0.0269978 0.0212885 0.0005 
1106 1 0.0194161 0.0275993 0.0218978 0.00125 
1017 1 0.0170871 0.0228116 0.02075 0.00075 
1574 1 0.0234613 0.0276836 0.0205214 0.0005 
1472 1 0.0232486 0.0257808 0.0215906 0.00075 
1590 1 0.0209075 0.0243073 0.0214408 0.0005 
1370 1 0.0230843 0.0279874 0.0219902 0.00075 
1738 1 0.0181857 0.0214888 0.0216409 0.0005 
1634 1 0.0200815 0.0251976 0.0217512 0.00075 
908 1 0.0223845 0.0242701 0.0221793 0.0005 
162 1 0.000507614 0.0315303 0.0205 0.0005 
249 1 0.00200287 0.0352816 0.0220403 0.002 
259 1 0.00204158 0.0323508 0.0205045 0.0005 
522 1 0.000898252 0.0328072 0.02075 0.00075 
672 1 0.00415637 0.0340561 0.0207654 0.00075 
348 1 0.00296678 0.0312847 0.0205 0.0005 
337 1 0.00308916 0.0329965 0.0207502 0.00075 
897 1 0.000500414 0.0339794 0.0205 0.0005 
980 1 0.00707257 0.0301969 0.0205 0.0005 
991 1 0.00499811 0.0299452 0.0212499 0.00125 
638 1 0.00378105 0.0331453 0.022076 0.00075 
925 1 0.00559862 0.0327454 0.0212498 0.00125 
1103 1 0.00644102 0.0313724 0.0205031 0.0005 
338 1 0.00177287 0.029458 0.0217499 0.00175 
506 1 0.000503948 0.0330035 0.021931 0.0005 
1480 1 0.00708968 0.0314774 0.0216615 0.00075 
505 1 0.00741461 0.0311375 0.0205 0.0005 
919 1 0.00752592 0.0283811 0.0217498 0.00175 
1073 1 0.00472888 0.0350348 0.021755 0.00075 
1084 1 0.00259285 0.0318222 0.0215705 0.00075 
1355 1 0.00162045 0.0325585 0.021846 0.0005 
1143 1 0.00407958 0.0316531 0.0219679 0.00075 
261 1 0.0144088 0.0308055 0.0205 0.0005 
886 1 0.0098491 0.0338736 0.0205 0.0005 
138 1 0.00838732 0.0307815 0.0205 0.0005 
471 1 0.00802045 0.0332864 0.0215466 0.00125 
984 1 0.0119588 0.030883 0.0215147 0.0015 
1249 1 0.0156312 0.0306791 0.0209585 0.00075 
1446 1 0.00958532 0.0299068 0.0216364 0.00075 
1154 1 0.0110597 0.0347103 0.0205 0.0005 
609 1 0.0142482 0.0331507 0.0205 0.0005 
1134 1 0.00923722 0.0349442 0.02075 0.00075 
960 1 0.00800195 0.0353189 0.0216732 0.00075 
1340 1 0.0103855 0.0348288 0.0212338 0.0005 
1678 1 0.0143161 0.0343629 0.021688 0.0005 
924 1 0.0123979 0.0350358 0.0209495 0.0005 
1353 1 0.0107933 0.0354367 0.0220242 0.0005 
1749 1 0.0102653 0.0326244 0.0227519 0.0005 
1113 1 0.0189383 0.0291761 0.02075 0.00075 
1361 1 0.0173511 0.0288999 0.02075 0.00075 
1044 1 0.0214396 0.0299562 0.0212484 0.00125 
557 1 0.0212391 0.0342595 0.021329 0.00125 
1015 1 0.0233609 0.0287344 0.0205 0.0005 
698 1 0.0179692 0.0303312 0.0207504 0.00075 
304 1 0.0225665 0.0312238 0.0205 0.0005 
1083 1 0.016851 0.0322847 0.0212499 0.00125 
916 1 0.016001 0.0291754 0.0216073 0.0005 
1142 1 0.0226053 0.0349916 0.0205 0.0005 
1335 1 0.0186988 0.0320068 0.0205 0.0005 
1348 1 0.0166913 0.0302028 0.0204996 0.0005 
1273 1 0.0231566 0.0345989 0.0214631 0.0005 
1414 1 0.0235 0.0345446 0.0205 0.0005 
1016 1 0.0231976 0.0333606 0.0207635 0.00075 
959 1 0.0185458 0.0330692 0.0205 0.0005 
1531 1 0.0193095 0.0311926 0.0205 0.0005 
1329 1 0.0230429 0.0301772 0.0205001 0.0005 
1318 1 0.0217457 0.031915 0.0205219 0.0005 
1305 1 0.019485 0.030323 0.0215483 0.00075 
1145 1 0.017707 0.035296 0.0207772 0.00075 
1258 1 0.0232797 0.0306977 0.0213385 0.0005 
1695 1 0.0194154 0.0331056 0.0222917 0.001 
889 1 0.0234644 0.0353285 0.0222634 0.0005 
1224 1 0.0186728 0.0314695 0.022336 0.00075 
535 1 0.000503918 0.0367055 0.0205 0.0005 
844 1 0.00367499 0.0363582 0.0205 0.0005 
60 1 0.0051408 0.0375174 0.0217636 0.00175 
451 1 0.000803695 0.0398016 0.02075 0.00075 
366 1 0.00141151 0.0372051 0.0205 0.0005 
680 1 0.00257247 0.0376644 0.02075 0.00075 
519 1 0.000541489 0.0413224 0.0205 0.0005 
247 1 0.0017816 0.0421449 0.0211732 0.00075 
733 1 0.00278865 0.0411681 0.0205 0.0005 
1108 1 0.000754624 0.0382387 0.0207506 0.00075 
615 1 0.00540004 0.0393891 0.0205 0.0005 
554 1 0.000504465 0.0419865 0.0212467 0.0005 
1186 1 0.00310809 0.0421157 0.0205 0.0005 
316 1 0.00050207 0.0371838 0.0213781 0.0005 
1276 1 0.00252773 0.0395391 0.0209999 0.001 
1177 1 0.00438628 0.0409627 0.0212499 0.00125 
570 1 0.00405704 0.0425328 0.0205 0.0005 
309 1 0.00544947 0.042287 0.0205 0.0005 
626 1 0.00714148 0.0404982 0.0207772 0.00075 
1372 1 0.00741176 0.0383113 0.0224532 0.00075 
949 1 0.00706647 0.0389281 0.02075 0.00075 
1301 1 0.00684948 0.0420206 0.02075 0.00075 
1191 1 0.00110411 0.0386695 0.0224118 0.001 
1215 1 0.0030446 0.042257 0.0220897 0.0005 
91 1 0.007892 0.0365201 0.0207559 0.00075 
1419 1 0.012869 0.0363243 0.02075 0.00075 
640 1 0.00988085 0.03636 0.0207683 0.00075 
514 1 0.00987481 0.0415819 0.0205 0.0005 
641 1 0.0104861 0.0400679 0.0209999 0.001 
1019 1 0.0155795 0.0367698 0.0205274 0.0005 
669 1 0.00874339 0.0384359 0.0213165 0.001 
835 1 0.0096498 0.0375613 0.0205 0.0005 
802 1 0.0119914 0.0412128 0.02075 0.00075 
1043 1 0.0135013 0.0395875 0.0209999 0.001 
1107 1 0.0113753 0.036529 0.0207614 0.00075 
1131 1 0.0139029 0.042405 0.0205 0.0005 
901 1 0.0105908 0.0379582 0.0212216 0.00075 
1487 1 0.0105136 0.0424579 0.0205 0.0005 
1149 1 0.013299 0.0361471 0.0221777 0.00075 
1571 1 0.0128211 0.0424003 0.021317 0.00075 
1482 1 0.0120195 0.0398841 0.0218929 0.00075 
1095 1 0.0156012 0.036634 0.0216066 0.0005 
1265 1 0.0125257 0.0375602 0.0218778 0.0005 
1705 1 0.0128679 0.0376586 0.0209048 0.0005 
1716 1 0.0157485 0.0415691 0.0205 0.0005 
912 1 0.00943315 0.0359585 0.022453 0.001 
1346 1 0.0117646 0.0362194 0.0221978 0.00075 
1741 1 0.0108262 0.0398535 0.022488 0.0005 
1484 1 0.0103587 0.0422435 0.0222819 0.001 
1743 1 0.0159169 0.0388136 0.0219978 0.001 
1120 1 0.0199205 0.0357445 0.02075 0.00075 
909 1 0.0234854 0.0359219 0.0205 0.0005 
1101 1 0.0178194 0.0415039 0.0223845 0.00075 
268 1 0.0164593 0.0380556 0.0205 0.0005 
1278 1 0.0183121 0.0397191 0.0205 0.0005 
1033 1 0.0191701 0.0399055 0.0217536 0.001 
1307 1 0.0200539 0.0374022 0.0205 0.0005 
1018 1 0.0187114 0.0407467 0.0205 0.0005 
973 1 0.0199712 0.0402792 0.0205166 0.0005 
1148 1 0.0183239 0.0378263 0.0212765 0.0005 
1167 1 0.0162109 0.0357639 0.0205014 0.0005 
990 1 0.0220841 0.0363193 0.021 0.001 
1003 1 0.0201008 0.038713 0.0207501 0.00075 
374 1 0.0232161 0.0388449 0.02075 0.00075 
394 1 0.0189119 0.0381834 0.0205 0.0005 
326 1 0.0235 0.0400365 0.0205 0.0005 
650 1 0.0216968 0.0403044 0.0215426 0.0015 
848 1 0.0214047 0.0379694 0.02075 0.00075 
993 1 0.0234999 0.0410367 0.0205 0.0005 
996 1 0.0177335 0.0365169 0.0205001 0.0005 
892 1 0.0189107 0.036854 0.0207538 0.00075 
856 1 0.0170353 0.0372338 0.0205014 0.0005 
1261 1 0.0234991 0.0372876 0.0205 0.0005 
1117 1 0.0202724 0.041242 0.0204992 0.0005 
1181 1 0.017047 0.0363462 0.021621 0.00075 
1268 1 0.0226337 0.037739 0.020719 0.0005 
1135 1 0.0209327 0.042331 0.0207515 0.00075 
1422 1 0.0191547 0.0421036 0.021005 0.001 
1663 1 0.0188483 0.0362474 0.0219106 0.0005 
1062 1 0.02307 0.0421349 0.0209148 0.00075 
1559 1 0.0193006 0.0380108 0.0214052 0.0005 
1709 1 0.0164639 0.0424515 0.0212271 0.0005 
1051 1 0.0200423 0.0375997 0.0223237 0.00075 
981 1 0.0234975 0.0405563 0.0223786 0.0005 
876 1 0.0227499 0.0378744 0.0224849 0.00125 
668 1 0.00062927 0.0430454 0.0205 0.0005 
386 1 0.00171249 0.0432759 0.0205037 0.0005 
433 1 0.00291204 0.0431488 0.0205 0.0005 
584 1 0.00520112 0.0439037 0.02075 0.00075 
579 1 0.000787762 0.0479997 0.02075 0.00075 
242 1 0.0066799 0.0443725 0.0205036 0.0005 
814 1 0.0038505 0.0474028 0.02075 0.00075 
423 1 0.00168969 0.0494784 0.0209999 0.001 
347 1 0.00552661 0.0495536 0.02075 0.00075 
855 1 0.00421717 0.049592 0.0205 0.0005 
1242 1 0.0046243 0.0486674 0.0205 0.0005 
1251 1 0.00322109 0.0494934 0.0205 0.0005 
987 1 0.00492537 0.04522 0.0205054 0.0005 
682 1 0.00744703 0.0436451 0.0205498 0.0005 
762 1 0.000504828 0.0476273 0.0219092 0.0005 
1387 1 0.00572313 0.0466683 0.0210001 0.001 
236 1 0.00231671 0.0451958 0.0219998 0.002 
1432 1 0.0053285 0.0429026 0.0214901 0.0005 
1596 1 0.000570511 0.0487904 0.0217526 0.0005 
1030 1 0.00690903 0.0486207 0.0205203 0.0005 
1390 1 0.00285892 0.0480843 0.0211868 0.0005 
1357 1 0.00649039 0.0435991 0.0211231 0.0005 
1351 1 0.0047463 0.0441351 0.0219355 0.0005 
621 1 0.00788459 0.0433097 0.0216929 0.00075 
1591 1 0.00784232 0.0447377 0.0221531 0.00075 
999 1 0.00753876 0.0479555 0.0223738 0.0015 
533 1 0.00843381 0.0454902 0.02075 0.00075 
1100 1 0.00915051 0.0468095 0.0207505 0.00075 
40 1 0.00874866 0.0490464 0.0205 0.0005 
883 1 0.0156821 0.0480678 0.0205 0.0005 
328 1 0.00921644 0.043955 0.0205 0.0005 
453 1 0.0115302 0.0474433 0.0219997 0.002 
1194 1 0.0121657 0.043115 0.0205 0.0005 
1240 1 0.0144919 0.0455562 0.02075 0.00075 
1297 1 0.0157024 0.0444982 0.0207534 0.00075 
1306 1 0.0131013 0.0494167 0.0207519 0.00075 
1644 1 0.00818952 0.044264 0.0208273 0.0005 
1701 1 0.0139118 0.0434276 0.0213653 0.00075 
1713 1 0.0114403 0.0430689 0.0215013 0.0005 
1490 1 0.0169025 0.0485846 0.0221407 0.00075 
969 1 0.0166997 0.0483238 0.0205 0.0005 
1023 1 0.020156 0.0432873 0.0205008 0.0005 
1133 1 0.0186809 0.0447714 0.02075 0.00075 
985 1 0.0164858 0.0454826 0.0205 0.0005 
485 1 0.0232502 0.0494293 0.0207498 0.00075 
499 1 0.0190515 0.0487156 0.0212499 0.00125 
804 1 0.0235 0.0432328 0.0205 0.0005 
935 1 0.0220149 0.0454535 0.0205 0.0005 
970 1 0.0232433 0.0456722 0.02075 0.00075 
859 1 0.0208777 0.0479444 0.0207497 0.00075 
1097 1 0.0176796 0.0459174 0.0207735 0.00075 
1155 1 0.0199494 0.0471318 0.0205 0.0005 
1271 1 0.0220388 0.0428793 0.0205 0.0005 
1289 1 0.0189454 0.0471373 0.0205 0.0005 
1319 1 0.016579 0.0464993 0.020504 0.0005 
1334 1 0.0169496 0.0433506 0.0205 0.0005 
917 1 0.0232439 0.0475563 0.02075 0.00075 
963 1 0.0212359 0.0467725 0.0205021 0.0005 
1299 1 0.0196405 0.0459241 0.0207497 0.00075 
1411 1 0.0187234 0.0466556 0.0216842 0.00075 
1426 1 0.0175206 0.0474128 0.0207529 0.00075 
1384 1 0.0172229 0.0494138 0.0208192 0.00075 
847 1 0.0232491 0.04417 0.0215425 0.00075 
1494 1 0.0174853 0.0472053 0.022328 0.00075 
1088 1 0.0211231 0.0458423 0.0216753 0.001 
927 1 0.0199823 0.0439415 0.0221149 0.00125 
1188 1 0.0165185 0.0463046 0.0214894 0.0005 
1317 1 0.0203141 0.0473642 0.0220117 0.00075 
495 1 0.00636702 0.0499262 0.0219615 0.00075 
712 1 0.00644593 0.0508873 0.02075 0.00075 
543 1 0.0012711 0.05204 0.0212499 0.00125 
402 1 0.00421168 0.0514637 0.0217499 0.00175 
3 1 0.00244728 0.0530996 0.0205 0.0005 
740 1 0.000504101 0.0532053 0.0223881 0.0005 
354 1 0.00345051 0.0532285 0.0205 0.0005 
424 1 0.00751225 0.051949 0.02075 0.00075 
265 1 0.00642272 0.052997 0.02075 0.00075 
145 1 0.00150001 0.054769 0.0214999 0.0015 
704 1 0.00327099 0.0546976 0.0205 0.0005 
788 1 0.0053008 0.0539936 0.0207499 0.00075 
1382 1 0.00406816 0.0540368 0.0205129 0.0005 
1421 1 0.00162681 0.0565878 0.0223626 0.0005 
1453 1 0.00443305 0.0564916 0.0205 0.0005 
551 1 0.00328495 0.0567075 0.0214438 0.00075 
674 1 0.00642683 0.0520546 0.0216243 0.0005 
1616 1 0.00280684 0.0559603 0.0205 0.0005 
977 1 0.00578479 0.0551898 0.0205 0.0005 
1547 1 0.00737048 0.0515553 0.0219321 0.0005 
603 1 0.00374455 0.0541383 0.0217279 0.00075 
335 1 0.0116402 0.0504991 0.0205 0.0005 
405 1 0.0137529 0.0504806 0.0205022 0.0005 
367 1 0.00952312 0.0508002 0.0217499 0.00175 
1201 1 0.0131014 0.0516698 0.02075 0.00075 
371 1 0.0135408 0.0547428 0.0205 0.0005 
496 1 0.00970599 0.0532041 0.02075 0.00075 
1151 1 0.0144609 0.0519866 0.0205 0.0005 
792 1 0.0146945 0.0558411 0.0212499 0.00125 
1089 1 0.0131095 0.0556968 0.0205 0.0005 
278 1 0.0105706 0.0554366 0.0205 0.0005 
467 1 0.0150947 0.0536386 0.0209999 0.001 
1478 1 0.0124114 0.0558058 0.0218256 0.001 
1477 1 0.0155557 0.0509249 0.0211703 0.001 
1638 1 0.0112891 0.0523876 0.0207864 0.0005 
1656 1 0.0106402 0.0547723 0.021843 0.001 
11 1 0.0111893 0.0564946 0.02075 0.00075 
1706 1 0.00890589 0.0563511 0.0212301 0.0005 
1630 1 0.0152524 0.0543979 0.0223025 0.0005 
1162 1 0.0133518 0.0527081 0.0223564 0.00075 
1538 1 0.0158894 0.0552091 0.0224249 0.0005 
1363 1 0.0181448 0.050227 0.0205 0.0005 
410 1 0.0191579 0.0503089 0.0205 0.0005 
168 1 0.0223062 0.0513287 0.0214999 0.0015 
133 1 0.0185893 0.0511329 0.0205001 0.0005 
769 1 0.0205755 0.0513985 0.0205 0.0005 
976 1 0.0164565 0.0542647 0.0205 0.0005 
776 1 0.0180223 0.0519714 0.0205 0.0005 
702 1 0.0217164 0.0535041 0.0205 0.0005 
415 1 0.0234995 0.0536465 0.0205 0.0005 
431 1 0.0170062 0.0555787 0.0210251 0.001 
573 1 0.0197707 0.0529323 0.0214999 0.0015 
73 1 0.0212582 0.055079 0.0209999 0.001 
470 1 0.0201755 0.0559905 0.0205 0.0005 
258 1 0.0193427 0.0565632 0.0205 0.0005 
785 1 0.0181001 0.0542408 0.02075 0.00075 
661 1 0.0192876 0.055489 0.0216016 0.001 
1102 1 0.0234958 0.0526415 0.0205 0.0005 
1005 1 0.0229454 0.0545316 0.0205043 0.0005 
1146 1 0.0183467 0.0561468 0.0205 0.0005 
690 1 0.0195937 0.051209 0.0205 0.0005 
829 1 0.0172351 0.0530153 0.02075 0.00075 
777 1 0.0198969 0.054662 0.0205 0.0005 
1200 1 0.0204829 0.0505144 0.0209622 0.0005 
1169 1 0.0159664 0.0564802 0.022315 0.0005 
1009 1 0.020689 0.0557088 0.0222434 0.0005 
112 1 0.0232497 0.0556181 0.0211009 0.00075 
1456 1 0.0222581 0.0560859 0.0205 0.0005 
808 1 0.022748 0.0539432 0.0222469 0.00125 
649 1 0.0160774 0.0566331 0.0205 0.0005 
122 1 0.0016387 0.0572145 0.0209999 0.001 
230 1 0.00369254 0.0574122 0.020498 0.0005 
1260 1 0.00685958 0.0573196 0.0212499 0.00125 
637 1 0.000499976 0.0580051 0.0215728 0.0005 
525 1 0.00204524 0.0586118 0.0205 0.0005 
866 1 0.000522067 0.0583444 0.0205 0.0005 
194 1 0.00125341 0.0589867 0.0213959 0.00075 
357 1 0.000502014 0.0594373 0.0205 0.0005 
567 1 0.00211508 0.0596196 0.0205 0.0005 
773 1 0.00613888 0.0609421 0.0205 0.0005 
510 1 0.00125084 0.0609813 0.0212499 0.00125 
331 1 0.000499998 0.062462 0.0205 0.0005 
94 1 0.00685543 0.0630697 0.0209999 0.001 
1199 1 0.0048188 0.0634356 0.0205 0.0005 
267 1 0.00049996 0.0629101 0.0213939 0.0005 
665 1 0.00315072 0.0629535 0.0214999 0.0015 
487 1 0.00426269 0.0594518 0.02225 0.00225 
791 1 0.00548187 0.0624883 0.0223322 0.001 
1612 1 0.00761742 0.0632084 0.0223362 0.0005 
936 1 0.00768902 0.0587355 0.0205 0.0005 
116 1 0.00848574 0.0629175 0.0205 0.0005 
489 1 0.00809573 0.0607286 0.0217498 0.00175 
1054 1 0.00872642 0.057609 0.0205219 0.0005 
781 1 0.00933112 0.0622928 0.0205 0.0005 
923 1 0.0100098 0.0575018 0.0205 0.0005 
88 1 0.00927603 0.0592205 0.0205 0.0005 
1156 1 0.0139877 0.0576719 0.021292 0.0005 
907 1 0.00978324 0.0622271 0.0215412 0.0005 
1115 1 0.0145427 0.0579268 0.0205 0.0005 
147 1 0.0103535 0.0584418 0.0205026 0.0005 
81 1 0.0124151 0.0604141 0.0207581 0.00075 
493 1 0.0135668 0.0608258 0.0205 0.0005 
760 1 0.0146436 0.0632074 0.0205 0.0005 
1010 1 0.0143125 0.0614968 0.0205 0.0005 
580 1 0.0145353 0.060056 0.02075 0.00075 
1127 1 0.0104031 0.0604434 0.02075 0.00075 
1171 1 0.0107482 0.0621518 0.0207499 0.00075 
593 1 0.0130706 0.0570183 0.0207498 0.00075 
1218 1 0.0114215 0.0611282 0.0205 0.0005 
1237 1 0.0113928 0.0586466 0.0205 0.0005 
1327 1 0.0148754 0.0588455 0.0215678 0.00075 
1322 1 0.0118142 0.0575489 0.0205 0.0005 
1255 1 0.0119911 0.0622701 0.0205 0.0005 
1354 1 0.0130948 0.0630771 0.0211195 0.001 
1393 1 0.0154254 0.0620808 0.0216105 0.0005 
1175 1 0.0130096 0.0587713 0.0209999 0.001 
778 1 0.0149813 0.0622508 0.0205 0.0005 
711 1 0.0154286 0.0583904 0.0205171 0.0005 
716 1 0.0152183 0.0610731 0.0205 0.0005 
1593 1 0.0116122 0.0630174 0.0221339 0.00075 
1220 1 0.0103151 0.0584522 0.0222563 0.00125 
1277 1 0.0125314 0.0614773 0.0218325 0.00075 
1668 1 0.0140015 0.0632491 0.0223094 0.0005 
1368 1 0.0146508 0.0598838 0.0222421 0.0005 
1031 1 0.0189918 0.0571833 0.0221593 0.00075 
1248 1 0.0160036 0.0611323 0.0211161 0.0005 
1079 1 0.0174898 0.0575267 0.0205 0.0005 
8 1 0.0178657 0.0578448 0.0216295 0.0005 
653 1 0.0177475 0.0585737 0.0205 0.0005 