ITEM: TIMESTEP
240000
ITEM: NUMBER OF ATOMS
2113
ITEM: BOX BOUNDS mm mm mm
-2.4e-06 0.0240024
-7.8e-06 0.0780078
-3e-06 0.030003
ITEM: ATOMS id type x y z radius 
324 1 0.00772199 0.00392524 0.0219996 0.002 
291 1 0.00278727 0.00154291 0.0214999 0.0015 
368 1 0.000500049 0.00149517 0.0205 0.0005 
784 1 0.00534371 0.00316446 0.02075 0.00075 
32 1 0.00532703 0.000499997 0.0205 0.0005 
241 1 0.00443086 0.00229651 0.0205 0.0005 
815 1 0.00119137 0.00221799 0.0205 0.0005 
448 1 0.00372615 0.00300702 0.0205 0.0005 
300 1 0.000510177 0.000500198 0.0206035 0.0005 
442 1 0.00101455 0.00362112 0.0209999 0.001 
816 1 0.00585779 0.0049665 0.0205 0.0005 
710 1 0.00425335 0.000500338 0.0205 0.0005 
527 1 0.000499874 0.00496167 0.0205 0.0005 
256 1 0.000539981 0.00633784 0.0204999 0.0005 
870 1 0.0076755 0.00592847 0.0205 0.0005 
100 1 0.0044918 0.00258998 0.0214618 0.0005 
153 1 0.00483144 0.00137971 0.0205 0.0005 
486 1 0.00361004 0.00513227 0.0222498 0.00225 
722 1 0.001489 0.00510764 0.0204999 0.0005 
864 1 0.0048529 0.000812377 0.0213232 0.0005 
503 1 0.00050056 0.00493282 0.0215169 0.0005 
561 1 0.00601269 0.00170369 0.02075 0.00075 
501 1 0.00588837 0.000500008 0.0213277 0.0005 
64 1 0.00633375 0.0063896 0.0209999 0.001 
954 1 0.00644949 0.000500657 0.0205 0.0005 
274 1 0.00770863 0.00693183 0.0205 0.0005 
75 1 0.00167692 0.00686777 0.0207498 0.00075 
1195 1 0.00789371 0.00144195 0.0217624 0.0005 
390 1 0.000500356 0.00592878 0.0214114 0.0005 
887 1 0.00656458 0.00696641 0.0223707 0.0005 
380 1 0.00498062 0.00690369 0.0205 0.0005 
587 1 0.000500012 0.00407324 0.0223344 0.0005 
370 1 0.00764851 0.000750209 0.02075 0.00075 
28 1 0.000751693 0.000750851 0.0220405 0.00075 
842 1 0.00624543 0.00590027 0.022415 0.0005 
998 1 0.000749868 0.00705303 0.0219141 0.00075 
220 1 0.00710051 0.000750289 0.0224381 0.00075 
121 1 0.00861112 0.00628147 0.0205 0.0005 
228 1 0.00908369 0.00540018 0.0205 0.0005 
490 1 0.00970054 0.0046131 0.0205 0.0005 
199 1 0.011705 0.00328491 0.0205 0.0005 
395 1 0.0107164 0.00282206 0.0205 0.0005 
474 1 0.0138166 0.00180096 0.02075 0.00075 
282 1 0.0103621 0.00138534 0.0205 0.0005 
590 1 0.00986563 0.000502251 0.0205 0.0005 
176 1 0.0130807 0.00050008 0.0205 0.0005 
289 1 0.0109033 0.000507737 0.0205 0.0005 
362 1 0.00886564 0.000500684 0.0204999 0.0005 
783 1 0.0110133 0.00400723 0.0205 0.0005 
51 1 0.0127451 0.00306683 0.0205 0.0005 
233 1 0.00958326 0.00233115 0.02075 0.00075 
217 1 0.0108369 0.00499159 0.0205 0.0005 
636 1 0.0120585 0.00663703 0.0205 0.0005 
549 1 0.0102844 0.00477911 0.021306 0.0005 
126 1 0.0125604 0.00479661 0.0214997 0.0015 
307 1 0.00816393 0.00192854 0.0205 0.0005 
676 1 0.0100252 0.00103508 0.0216523 0.00075 
209 1 0.0138855 0.00600573 0.0205 0.0005 
730 1 0.0088815 0.00158268 0.021464 0.0005 
764 1 0.0104338 0.00652211 0.0212498 0.00125 
311 1 0.014751 0.00688965 0.0215854 0.001 
763 1 0.00969774 0.0036131 0.0205 0.0005 
66 1 0.0143244 0.00488294 0.0205 0.0005 
61 1 0.0149244 0.0056933 0.0205 0.0005 
108 1 0.0149139 0.00339656 0.0212498 0.00125 
581 1 0.0125268 0.0069728 0.0220697 0.00075 
89 1 0.00866623 0.00049994 0.0214797 0.0005 
155 1 0.0118898 0.0017299 0.0212813 0.00125 
178 1 0.0149056 0.000749698 0.0207493 0.00075 
364 1 0.0104315 0.00355456 0.0215102 0.00075 
895 1 0.0110255 0.000499999 0.0221773 0.0005 
598 1 0.0127055 0.000499994 0.0222218 0.0005 
161 1 0.0232501 0.000750051 0.0207499 0.00075 
159 1 0.0227754 0.00339327 0.0204999 0.0005 
204 1 0.0235 0.00438347 0.0205 0.0005 
219 1 0.0214387 0.000999931 0.0209998 0.001 
333 1 0.0232492 0.00380639 0.0215802 0.00075 
142 1 0.0232498 0.00226419 0.02075 0.00075 
200 1 0.0201954 0.00269358 0.0207497 0.00075 
340 1 0.0217818 0.00447182 0.0207498 0.00075 
452 1 0.0235 0.00538346 0.0205 0.0005 
518 1 0.0189058 0.000750255 0.02075 0.00075 
185 1 0.0164722 0.00537 0.0212498 0.00125 
31 1 0.0168892 0.0014998 0.0214998 0.0015 
123 1 0.0228351 0.000999883 0.0224314 0.001 
273 1 0.0217492 0.00290411 0.0215265 0.001 
113 1 0.0172233 0.00323552 0.0205 0.0005 
544 1 0.018547 0.00437116 0.021 0.001 
577 1 0.02325 0.00549824 0.0217193 0.00075 
652 1 0.0182627 0.00582876 0.0215339 0.0005 
290 1 0.0186966 0.00261303 0.02075 0.00075 
281 1 0.0200687 0.00385371 0.0216917 0.00075 
190 1 0.0176002 0.0069441 0.02075 0.00075 
57 1 0.0203895 0.00607203 0.0214999 0.0015 
143 1 0.022482 0.0056474 0.0205 0.0005 
853 1 0.0182135 0.00578958 0.0205 0.0005 
106 1 0.0220842 0.00505703 0.0218121 0.0005 
1012 1 0.0183997 0.00697329 0.022053 0.00075 
109 1 0.0188157 0.00679528 0.0204999 0.0005 
6 1 0.0227748 0.00704744 0.0209998 0.001 
1359 1 0.00290517 0.00713419 0.0205 0.0005 
588 1 0.00389451 0.00735974 0.0205 0.0005 
360 1 0.00669303 0.0122236 0.0204997 0.0005 
154 1 0.00484802 0.00812839 0.02075 0.00075 
13 1 0.000502604 0.00733711 0.0205 0.0005 
879 1 0.00602222 0.00777062 0.0205 0.0005 
137 1 0.000584083 0.00835714 0.0205 0.0005 
44 1 0.00524569 0.00967156 0.02075 0.00075 
401 1 0.00597064 0.0112942 0.0217944 0.00125 
1166 1 0.00587226 0.00785812 0.0218323 0.00075 
1234 1 0.00609397 0.00900223 0.0213786 0.0005 
323 1 0.00249343 0.00922511 0.0219995 0.002 
820 1 0.00049926 0.00936211 0.0204995 0.0005 
1067 1 0.00787649 0.0128118 0.0205 0.0005 
713 1 0.00232387 0.0112173 0.0204995 0.0005 
881 1 0.000503127 0.0103725 0.0205 0.0005 
943 1 0.00328294 0.0114983 0.0204995 0.0005 
673 1 0.0043233 0.0108535 0.0207499 0.00075 
174 1 0.000999431 0.0117092 0.0210016 0.001 
447 1 0.00646158 0.00866894 0.0205 0.0005 
1070 1 0.00769895 0.0071986 0.0217373 0.00075 
737 1 0.00537121 0.0125281 0.0205 0.0005 
646 1 0.00134206 0.0139162 0.0205 0.0005 
508 1 0.000506365 0.013103 0.0205 0.0005 
872 1 0.00771742 0.0115526 0.0207499 0.00075 
439 1 0.00663679 0.013802 0.021253 0.00125 
891 1 0.00703578 0.00768906 0.0205 0.0005 
427 1 0.00464307 0.00768254 0.0219785 0.0005 
1190 1 0.0049856 0.00891343 0.0217129 0.0005 
196 1 0.000727065 0.0139419 0.0212881 0.0005 
479 1 0.000506648 0.0130024 0.0215831 0.0005 
911 1 0.0043028 0.0109399 0.0222235 0.0005 
296 1 0.00332963 0.0135193 0.022363 0.00225 
35 1 0.00802635 0.00948147 0.0215728 0.0015 
611 1 0.00821576 0.0137543 0.0205 0.0005 
171 1 0.013231 0.00712208 0.02075 0.00075 
275 1 0.014154 0.00832188 0.0207498 0.00075 
46 1 0.00877892 0.00752742 0.0207498 0.00075 
556 1 0.0136862 0.00975539 0.0207499 0.00075 
287 1 0.0119 0.0107112 0.0204999 0.0005 
865 1 0.0137232 0.0116227 0.0205 0.0005 
756 1 0.0117082 0.00898949 0.0214999 0.0015 
318 1 0.0138754 0.00877957 0.0221506 0.00075 
686 1 0.00975581 0.00898352 0.0205 0.0005 
10 1 0.0153781 0.00841806 0.0205 0.0005 
569 1 0.0130593 0.0108138 0.0205 0.0005 
252 1 0.00881168 0.0109871 0.0205 0.0005 
188 1 0.0148856 0.0129247 0.0215003 0.0015 
772 1 0.012736 0.0117821 0.0205 0.0005 
709 1 0.00998379 0.0102239 0.0207495 0.00075 
1061 1 0.0117386 0.011706 0.0205 0.0005 
110 1 0.0131503 0.0127237 0.0205 0.0005 
1118 1 0.00995294 0.00986629 0.0219468 0.0005 
59 1 0.0119815 0.01269 0.0205 0.0005 
974 1 0.0116556 0.013899 0.0205 0.0005 
734 1 0.0126215 0.0126948 0.0216322 0.00075 
968 1 0.0121796 0.0111859 0.0216218 0.00075 
62 1 0.00989634 0.0126708 0.0220005 0.002 
1238 1 0.0098091 0.00816224 0.0210833 0.0005 
1028 1 0.0136685 0.0110075 0.0215905 0.00075 
1653 1 0.0155634 0.00898064 0.0213124 0.0005 
80 1 0.015254 0.0104445 0.0211094 0.001 
810 1 0.00976114 0.00814703 0.0223328 0.00075 
1922 1 0.0164099 0.00833528 0.021661 0.0005 
192 1 0.01618 0.00745752 0.02075 0.00075 
1846 1 0.0162127 0.00900591 0.0205 0.0005 
714 1 0.0160018 0.0115946 0.0205 0.0005 
342 1 0.0169624 0.0122006 0.0210219 0.00075 
319 1 0.021426 0.0074724 0.0204999 0.0005 
293 1 0.0189157 0.0108196 0.0217498 0.00175 
735 1 0.021114 0.00974841 0.0213708 0.0005 
308 1 0.0203278 0.00852117 0.0209998 0.001 
49 1 0.0174773 0.0096231 0.0205 0.0005 
146 1 0.0191503 0.00773765 0.0205005 0.0005 
578 1 0.0228453 0.00907013 0.0209999 0.001 
139 1 0.0171022 0.0139673 0.021001 0.001 
90 1 0.0186586 0.00834076 0.0214935 0.00075 
71 1 0.0214629 0.00937603 0.0205 0.0005 
659 1 0.0173304 0.00841877 0.0208009 0.00075 
967 1 0.0165472 0.00999033 0.0205 0.0005 
130 1 0.0216031 0.0118086 0.0205 0.0005 
41 1 0.0219432 0.0105836 0.02075 0.00075 
231 1 0.0234998 0.0103242 0.0205 0.0005 
279 1 0.0235 0.0080347 0.0218654 0.0005 
693 1 0.0215475 0.00777249 0.0214669 0.0005 
725 1 0.02322 0.0112306 0.0213143 0.00075 
697 1 0.020784 0.0101523 0.0205 0.0005 
330 1 0.0226558 0.012501 0.02075 0.00075 
78 1 0.0224866 0.0137143 0.0205 0.0005 
800 1 0.0207273 0.0112929 0.0205 0.0005 
538 1 0.0234999 0.0123727 0.0217399 0.0005 
1236 1 0.0187644 0.0131885 0.0212318 0.0005 
812 1 0.0219748 0.0115882 0.021493 0.0005 
944 1 0.0234994 0.0132625 0.0212736 0.0005 
794 1 0.0178997 0.0128239 0.0215809 0.0005 
592 1 0.0180175 0.0127684 0.0205 0.0005 
910 1 0.0215711 0.00886576 0.022182 0.00075 
523 1 0.0185118 0.0138214 0.0205 0.0005 
956 1 0.0192135 0.0126693 0.0204999 0.0005 
350 1 0.0207713 0.0134756 0.0215004 0.0015 
639 1 0.0227416 0.0137551 0.0217036 0.0005 
1899 1 0.0164414 0.00945611 0.0213631 0.0005 
1138 1 0.0232499 0.0101341 0.0223389 0.00075 
272 1 0.0234701 0.0138955 0.0205 0.0005 
1493 1 0.0186681 0.0135245 0.0224383 0.00075 
70 1 0.000522921 0.014612 0.0205 0.0005 
888 1 0.00365734 0.0155361 0.0205 0.0005 
550 1 0.000738133 0.0189818 0.0205 0.0005 
1 1 0.00708735 0.0156842 0.0207499 0.00075 
529 1 0.00124999 0.0161051 0.0212499 0.00125 
269 1 0.00680889 0.0180716 0.0212511 0.00125 
19 1 0.00468832 0.016739 0.02125 0.00125 
1077 1 0.00626209 0.0165889 0.0204999 0.0005 
877 1 0.00772893 0.0204603 0.0206917 0.0005 
1060 1 0.00759606 0.0158547 0.021879 0.0005 
1004 1 0.00501031 0.0194841 0.0207493 0.00075 
1570 1 0.00723327 0.0196031 0.0205 0.0005 
688 1 0.000499995 0.0194745 0.021337 0.0005 
896 1 0.00623426 0.0195485 0.0205 0.0005 
1660 1 0.00458543 0.0183331 0.0205 0.0005 
972 1 0.00581522 0.0153146 0.022271 0.00075 
223 1 0.00277341 0.0189935 0.02175 0.00175 
700 1 0.00413793 0.0208372 0.0207516 0.00075 
1416 1 0.00262001 0.0208605 0.0205 0.0005 
436 1 0.00686299 0.0164988 0.0221179 0.0005 
678 1 0.0010016 0.0209976 0.0209999 0.001 
315 1 0.00294786 0.0165375 0.0222144 0.00075 
600 1 0.00608239 0.0210137 0.0214617 0.00125 
576 1 0.000750068 0.0176715 0.0223886 0.00075 
1094 1 0.00539686 0.0191541 0.0221602 0.00075 
748 1 0.00816999 0.0144868 0.0218475 0.0005 
1196 1 0.0079988 0.0171701 0.0223251 0.0005 
695 1 0.00861205 0.0149127 0.020752 0.00075 
54 1 0.00852898 0.0166431 0.021 0.001 
786 1 0.00914709 0.0150944 0.021867 0.0005 
180 1 0.00976885 0.0191852 0.0219998 0.002 
221 1 0.0110226 0.0159464 0.0214999 0.0015 
118 1 0.013706 0.0153962 0.02125 0.00125 
717 1 0.0122368 0.0186406 0.0205 0.0005 
1232 1 0.00981186 0.0146688 0.0205 0.0005 
934 1 0.0135353 0.019228 0.0207498 0.00075 
1310 1 0.0124501 0.0176537 0.0205 0.0005 
1212 1 0.014734 0.0189243 0.0205 0.0005 
838 1 0.0141129 0.0175953 0.0209988 0.001 
624 1 0.0126477 0.0165729 0.0205 0.0005 
1035 1 0.0112369 0.0177809 0.0205 0.0005 
43 1 0.0155244 0.0148519 0.0205 0.0005 
1592 1 0.0119501 0.019878 0.0205006 0.0005 
1577 1 0.0147242 0.0199258 0.0204999 0.0005 
1636 1 0.0129484 0.0208525 0.0210668 0.001 
1757 1 0.0147085 0.0197735 0.0219243 0.0005 
1842 1 0.0143842 0.0204949 0.0213126 0.0005 
1697 1 0.00863682 0.0208371 0.0205 0.0005 
1765 1 0.0132383 0.0197585 0.0224035 0.00075 
1350 1 0.0145854 0.0210416 0.0204999 0.0005 
2033 1 0.0122381 0.0194607 0.0215048 0.0005 
1264 1 0.00990277 0.0211833 0.0205 0.0005 
1338 1 0.0159642 0.0170839 0.0205 0.0005 
1164 1 0.011251 0.0211368 0.02075 0.00075 
657 1 0.0143207 0.0182311 0.0223503 0.0005 
1755 1 0.013913 0.0211098 0.0222594 0.0005 
189 1 0.0159214 0.0160156 0.0205 0.0005 
1144 1 0.00825487 0.021194 0.0215827 0.0005 
1193 1 0.0185186 0.0142361 0.0214213 0.0005 
198 1 0.016275 0.019382 0.0212498 0.00125 
345 1 0.0193168 0.0144158 0.0205 0.0005 
741 1 0.0179936 0.0151047 0.0214986 0.0005 
450 1 0.0179459 0.0151015 0.0204998 0.0005 
1311 1 0.0168694 0.0208573 0.0205 0.0005 
947 1 0.0178247 0.019071 0.0204997 0.0005 
542 1 0.0181755 0.0162611 0.0219505 0.00075 
260 1 0.0177124 0.0176665 0.0210136 0.001 
591 1 0.0222901 0.014956 0.0207505 0.00075 
465 1 0.0187148 0.0166764 0.0204998 0.0005 
719 1 0.0190262 0.0155494 0.0209408 0.00075 
628 1 0.0234995 0.016136 0.0204999 0.0005 
42 1 0.0224356 0.0167419 0.02075 0.00075 
747 1 0.0210859 0.0151776 0.0204996 0.0005 
813 1 0.0203787 0.0160263 0.0205 0.0005 
787 1 0.0191559 0.0175737 0.0205 0.0005 
492 1 0.0198971 0.0169026 0.0205002 0.0005 
238 1 0.0235 0.0174252 0.0205 0.0005 
1216 1 0.0197119 0.0166432 0.0217144 0.00075 
1230 1 0.0171464 0.01603 0.02075 0.00075 
566 1 0.0210399 0.0173432 0.02075 0.00075 
1333 1 0.0213726 0.0161349 0.0204998 0.0005 
1091 1 0.0200855 0.0181282 0.0205 0.0005 
1398 1 0.0208987 0.0204885 0.0204999 0.0005 
1189 1 0.0235 0.0144853 0.0213069 0.0005 
1427 1 0.0200921 0.0150683 0.0204999 0.0005 
898 1 0.0193661 0.0178678 0.0216833 0.0005 
1253 1 0.0189919 0.0148974 0.0220061 0.0005 
1452 1 0.0204877 0.0192982 0.0207499 0.00075 
1488 1 0.0190281 0.0187916 0.0207506 0.00075 
1124 1 0.0235006 0.0151365 0.0204998 0.0005 
1137 1 0.0206361 0.0174875 0.0219241 0.0005 
1020 1 0.0225001 0.0188113 0.0216301 0.0015 
1401 1 0.0213702 0.0158738 0.0219768 0.001 
1298 1 0.0200072 0.0153154 0.021689 0.0005 
1170 1 0.0232481 0.0156909 0.0216414 0.00075 
1831 1 0.0180005 0.0198926 0.0210416 0.0005 
1796 1 0.0196017 0.0189072 0.0218619 0.0005 
957 1 0.0234911 0.0201489 0.0205 0.0005 
1320 1 0.0191504 0.0202865 0.0207502 0.00075 
1598 1 0.0202764 0.0204128 0.021279 0.0005 
1437 1 0.0234994 0.0204982 0.0220263 0.0005 
1184 1 0.0234999 0.0170191 0.0214138 0.0005 
1738 1 0.0180202 0.0207756 0.0205 0.0005 
1692 1 0.0204588 0.0184338 0.0216528 0.0005 
1828 1 0.0185702 0.0191782 0.0218648 0.0005 
1105 1 0.0215222 0.0212702 0.0204999 0.0005 
1202 1 0.0214712 0.0205055 0.0213531 0.0005 
1460 1 0.0227515 0.0210078 0.0224526 0.0005 
1648 1 0.0177312 0.0211756 0.022201 0.00125 
1250 1 0.0171664 0.0149721 0.0224321 0.00075 
1293 1 0.00221988 0.0217785 0.0205027 0.0005 
482 1 0.000500021 0.0223343 0.0205 0.0005 
12 1 0.00125 0.0233026 0.02075 0.00075 
952 1 0.0047772 0.0243121 0.0205009 0.0005 
1081 1 0.00692127 0.0245001 0.0205 0.0005 
904 1 0.00598376 0.0241383 0.0205027 0.0005 
1439 1 0.00499776 0.0231091 0.0207689 0.00075 
831 1 0.00337706 0.0245035 0.0210066 0.001 
534 1 0.000749684 0.0247166 0.0207496 0.00075 
1423 1 0.00313392 0.0262781 0.0205 0.0005 
1406 1 0.00241188 0.0255859 0.0205 0.0005 
483 1 0.000539425 0.0262414 0.0205 0.0005 
1394 1 0.0069043 0.0230567 0.0209996 0.001 
1483 1 0.0047117 0.0219203 0.0205 0.0005 
1512 1 0.00197563 0.0246856 0.0205002 0.0005 
752 1 0.0041651 0.0258982 0.0205 0.0005 
919 1 0.00769397 0.0275606 0.0217498 0.00175 
1578 1 0.00268769 0.0220393 0.0216947 0.0005 
978 1 0.00732541 0.0257095 0.0205 0.0005 
1805 1 0.00274516 0.0228854 0.0207559 0.00075 
1576 1 0.000525743 0.0258395 0.0214686 0.0005 
1373 1 0.0054204 0.0253732 0.0207565 0.00075 
1860 1 0.00372374 0.0221371 0.0205 0.0005 
946 1 0.0056344 0.0242465 0.0224293 0.00125 
1625 1 0.000500327 0.0231159 0.0217326 0.0005 
1455 1 0.00167084 0.0249467 0.022219 0.001 
1942 1 0.0039731 0.0219663 0.0217283 0.00075 
338 1 0.00181563 0.0276619 0.0217499 0.00175 
1698 1 0.00748327 0.0248543 0.0215845 0.00075 
1682 1 0.00761117 0.0214942 0.0224141 0.0005 
991 1 0.00475887 0.0279811 0.0212499 0.00125 
1662 1 0.00208843 0.0232549 0.0220534 0.00075 
982 1 0.0159807 0.0213879 0.0204998 0.0005 
780 1 0.0128427 0.0229911 0.0205 0.0005 
353 1 0.014416 0.0234773 0.0205006 0.0005 
1294 1 0.00961256 0.0230461 0.0205 0.0005 
1180 1 0.0102428 0.0221239 0.0205 0.0005 
1208 1 0.00816563 0.0248039 0.0205011 0.0005 
1462 1 0.0121821 0.0237805 0.0205 0.0005 
1467 1 0.0123523 0.0221185 0.0205 0.0005 
1343 1 0.00892972 0.0220264 0.0207499 0.00075 
1552 1 0.0113115 0.0225767 0.0211672 0.00075 
1602 1 0.0124775 0.0250241 0.0205165 0.0005 
1621 1 0.0133619 0.0241011 0.0207619 0.00075 
861 1 0.0148566 0.0246307 0.0207606 0.00075 
1643 1 0.00881514 0.0260121 0.0205 0.0005 
1539 1 0.0134073 0.0221646 0.0205 0.0005 
1330 1 0.0153664 0.0238525 0.0215959 0.0005 
1192 1 0.0150833 0.0258468 0.0205 0.0005 
1041 1 0.0103747 0.024532 0.0218078 0.0015 
1614 1 0.00853761 0.0236332 0.02075 0.00075 
1775 1 0.0151948 0.0230411 0.0209612 0.0005 
1693 1 0.0146472 0.0220653 0.0205 0.0005 
1618 1 0.008657 0.0255319 0.0214974 0.0005 
1221 1 0.0139327 0.0228042 0.0214423 0.00075 
1915 1 0.0140975 0.0255895 0.0205 0.0005 
1869 1 0.00990647 0.0259987 0.0205035 0.0005 
1601 1 0.010337 0.0219582 0.0224417 0.00075 
1655 1 0.00873982 0.0226945 0.0223561 0.001 
984 1 0.0129787 0.0262828 0.022104 0.0015 
1659 1 0.0154988 0.0213982 0.02192 0.001 
1870 1 0.0158562 0.0282736 0.0207536 0.00075 
1975 1 0.010706 0.0274626 0.0223865 0.0005 
1563 1 0.0164393 0.0241364 0.0205095 0.0005 
1017 1 0.0163363 0.0225598 0.02075 0.00075 
144 1 0.0167273 0.0255853 0.0209999 0.001 
152 1 0.0211153 0.0240006 0.0205161 0.0005 
1292 1 0.0188068 0.0241216 0.02075 0.00075 
512 1 0.0213666 0.0279393 0.0204998 0.0005 
862 1 0.0173243 0.02763 0.0205 0.0005 
1288 1 0.0174925 0.0221513 0.020501 0.0005 
1048 1 0.0200005 0.0215224 0.02075 0.00075 
1415 1 0.0215961 0.0222676 0.0205005 0.0005 
1087 1 0.0235 0.0258401 0.0205 0.0005 
1176 1 0.0196335 0.0263479 0.02075 0.00075 
1269 1 0.02325 0.0231385 0.02075 0.00075 
1507 1 0.0235 0.0262532 0.0214106 0.0005 
1574 1 0.0234997 0.0268414 0.0205 0.0005 
1472 1 0.0232506 0.0246412 0.0207508 0.00075 
1590 1 0.022111 0.0241935 0.0205 0.0005 
1634 1 0.0198159 0.0230111 0.02075 0.00075 
908 1 0.0217774 0.0232509 0.0205158 0.0005 
1219 1 0.0229222 0.0214394 0.0210107 0.001 
1646 1 0.0188452 0.0219536 0.0205 0.0005 
1927 1 0.0187547 0.0271123 0.0214456 0.0005 
1897 1 0.019873 0.0247566 0.0217095 0.00075 
1370 1 0.0232493 0.0280641 0.0207538 0.00075 
1243 1 0.0215596 0.0260221 0.0212499 0.00125 
1978 1 0.0182728 0.02538 0.0205106 0.0005 
1881 1 0.0192199 0.0258151 0.0218743 0.0005 
1514 1 0.0209737 0.0220376 0.0224195 0.00125 
1753 1 0.0163219 0.023639 0.0213856 0.0005 
1925 1 0.0210254 0.0243457 0.0214526 0.0005 
1768 1 0.0178718 0.0280661 0.0221585 0.0005 
1794 1 0.0176642 0.0234451 0.0220459 0.001 
162 1 0.000557306 0.0324494 0.0205 0.0005 
259 1 0.00169812 0.0329429 0.0205 0.0005 
522 1 0.000749963 0.0337381 0.0207499 0.00075 
672 1 0.00620146 0.0350453 0.0207578 0.00075 
348 1 0.00214386 0.0295367 0.0205 0.0005 
337 1 0.00296072 0.0335883 0.0207532 0.00075 
897 1 0.000499929 0.034937 0.0204999 0.0005 
980 1 0.0066294 0.0292161 0.0205 0.0005 
638 1 0.00406597 0.0347737 0.02075 0.00075 
925 1 0.0060059 0.0320094 0.0212499 0.00125 
1103 1 0.00554428 0.029397 0.0205 0.0005 
506 1 0.000501364 0.0342231 0.0219141 0.0005 
1480 1 0.00768905 0.0310179 0.02075 0.00075 
1084 1 0.00201478 0.0315405 0.0207544 0.00075 
1355 1 0.00189263 0.0341892 0.0205 0.0005 
1143 1 0.0033703 0.0293777 0.02075 0.00075 
1451 1 0.0044604 0.0301552 0.020871 0.0005 
412 1 0.00119053 0.0327816 0.0221475 0.001 
1285 1 0.0009818 0.0299357 0.0207531 0.00075 
1607 1 0.0020987 0.0303293 0.0213367 0.0005 
1529 1 0.00507169 0.0344427 0.0218128 0.00075 
471 1 0.00739731 0.0351089 0.0223678 0.00125 
1880 1 0.00758272 0.032182 0.0220806 0.0005 
1141 1 0.00351473 0.0319013 0.0224174 0.0015 
1290 1 0.00140169 0.0313165 0.0224062 0.0005 
1449 1 0.00359544 0.0296485 0.0224496 0.0005 
1761 1 0.00489348 0.0333498 0.0223925 0.0005 
505 1 0.00912869 0.0308208 0.0205 0.0005 
886 1 0.00875221 0.0330297 0.0205 0.0005 
138 1 0.00809041 0.0298222 0.0205024 0.0005 
1249 1 0.0148765 0.031844 0.0207499 0.00075 
1154 1 0.0113083 0.0338359 0.0205 0.0005 
609 1 0.0121689 0.0333151 0.0205 0.0005 
1134 1 0.00902812 0.0343079 0.02075 0.00075 
1340 1 0.010397 0.0349372 0.0205 0.0005 
1678 1 0.0133675 0.0341074 0.0205 0.0005 
924 1 0.0120022 0.0351429 0.0205001 0.0005 
1703 1 0.0136761 0.0308074 0.0205 0.0005 
1095 1 0.0143377 0.0343781 0.0205882 0.0005 
1872 1 0.0104497 0.0318582 0.0212499 0.00125 
1167 1 0.015515 0.0347889 0.0205 0.0005 
1815 1 0.0103684 0.0343248 0.021291 0.0005 
1348 1 0.0147846 0.0305262 0.0205 0.0005 
1594 1 0.0148556 0.0351255 0.0212074 0.0005 
1935 1 0.00962602 0.0304473 0.021877 0.0005 
1943 1 0.0121824 0.0323026 0.0205004 0.0005 
2043 1 0.00985184 0.0297128 0.0212208 0.0005 
2053 1 0.0149643 0.0301534 0.0215811 0.0005 
2021 1 0.00835135 0.0298942 0.0223687 0.0005 
1786 1 0.0175666 0.0286274 0.0209691 0.0005 
1409 1 0.0183257 0.0292568 0.0205 0.0005 
1106 1 0.019786 0.028513 0.0212498 0.00125 
1113 1 0.0190249 0.0302938 0.02075 0.00075 
1361 1 0.0166914 0.0295204 0.02075 0.00075 
1044 1 0.0215894 0.0304183 0.0212499 0.00125 
557 1 0.0205017 0.0341644 0.0212499 0.00125 
1015 1 0.0221549 0.0289415 0.0205 0.0005 
698 1 0.0160026 0.0308541 0.02075 0.00075 
304 1 0.0225595 0.0316778 0.0205 0.0005 
1083 1 0.0161336 0.033319 0.0212498 0.00125 
1142 1 0.0222509 0.0344212 0.0205 0.0005 
1335 1 0.0175869 0.0325736 0.0205 0.0005 
1273 1 0.0229144 0.0347176 0.0211869 0.0005 
1414 1 0.0235 0.0342872 0.0205 0.0005 
1016 1 0.0232465 0.0326918 0.02075 0.00075 
959 1 0.0192813 0.035176 0.0205 0.0005 
1531 1 0.0194855 0.0329323 0.0205 0.0005 
1329 1 0.0234996 0.0292702 0.0205 0.0005 
1318 1 0.0206587 0.0323867 0.0205 0.0005 
1305 1 0.0196636 0.0316555 0.0207501 0.00075 
1258 1 0.0234347 0.0302693 0.0205 0.0005 
1695 1 0.0182572 0.034027 0.0209999 0.001 
1224 1 0.0179279 0.0313239 0.02075 0.00075 
878 1 0.02325 0.0333429 0.0221015 0.00075 
1213 1 0.021767 0.0325189 0.0210668 0.00075 
1323 1 0.021796 0.0284099 0.0212699 0.0005 
1447 1 0.0184445 0.0306232 0.0220934 0.00075 
1603 1 0.0178096 0.0300558 0.0209222 0.0005 
1403 1 0.0198904 0.0307132 0.0215487 0.0005 
1445 1 0.0235 0.0313332 0.0205066 0.0005 
1362 1 0.0232497 0.0314025 0.0217807 0.00075 
1093 1 0.0167289 0.0311295 0.0220336 0.00075 
1442 1 0.0206834 0.0294681 0.0224072 0.0005 
1626 1 0.0178606 0.0322882 0.02156 0.0005 
889 1 0.023498 0.0353046 0.0205066 0.0005 
1534 1 0.0232077 0.0296506 0.022211 0.00075 
1073 1 0.00498926 0.0363705 0.02075 0.00075 
249 1 0.00206313 0.0361844 0.0219999 0.002 
960 1 0.00649382 0.0365164 0.0207502 0.00075 
535 1 0.00050255 0.0379352 0.0205 0.0005 
844 1 0.00391107 0.036954 0.0205 0.0005 
60 1 0.00492497 0.0388166 0.0217498 0.00175 
451 1 0.000749682 0.0416156 0.0207535 0.00075 
366 1 0.00148455 0.0381254 0.0205 0.0005 
680 1 0.00264698 0.0385649 0.02075 0.00075 
733 1 0.00200442 0.0417116 0.0205 0.0005 
1108 1 0.000776206 0.0393211 0.02075 0.00075 
615 1 0.00620464 0.0410071 0.0205 0.0005 
1186 1 0.002894 0.0424886 0.0205 0.0005 
316 1 0.000502918 0.0383073 0.0214282 0.0005 
1276 1 0.00263877 0.0402979 0.0209999 0.001 
1177 1 0.0044354 0.0417344 0.0212499 0.00125 
1372 1 0.0077381 0.0391482 0.0218774 0.00075 
949 1 0.00699434 0.0398002 0.0207499 0.00075 
1301 1 0.00621842 0.0425319 0.02075 0.00075 
1191 1 0.00104411 0.0406295 0.0221749 0.001 
91 1 0.00714205 0.0381993 0.02075 0.00075 
1537 1 0.00214681 0.042122 0.0217121 0.00075 
682 1 0.00768107 0.0422003 0.0205 0.0005 
1674 1 0.00716177 0.0371691 0.0219269 0.00075 
1179 1 0.00740857 0.0413927 0.0223098 0.0015 
1762 1 0.0128913 0.0355639 0.0219444 0.0005 
2018 1 0.0118343 0.0362777 0.021844 0.0005 
626 1 0.00876516 0.0403833 0.02075 0.00075 
1353 1 0.010053 0.0373164 0.0212456 0.0005 
1419 1 0.0125699 0.0365072 0.02075 0.00075 
640 1 0.00981281 0.0360158 0.02075 0.00075 
514 1 0.00989111 0.0418948 0.0205 0.0005 
641 1 0.0104859 0.0405961 0.0209999 0.001 
1019 1 0.0143523 0.037179 0.0205 0.0005 
669 1 0.00908721 0.0384612 0.0210001 0.001 
835 1 0.00841102 0.0371263 0.0205 0.0005 
802 1 0.0127174 0.0411821 0.02075 0.00075 
1043 1 0.0144014 0.0405844 0.0209999 0.001 
1107 1 0.0111124 0.0368616 0.02075 0.00075 
901 1 0.0108578 0.0383642 0.0207499 0.00075 
1149 1 0.0138887 0.0357929 0.0207499 0.00075 
1482 1 0.0120364 0.0398097 0.02075 0.00075 
1265 1 0.0127283 0.0387985 0.0205 0.0005 
1705 1 0.0138696 0.0382654 0.0205 0.0005 
1716 1 0.0153317 0.0416505 0.0205 0.0005 
912 1 0.0088769 0.0367752 0.0220562 0.001 
1346 1 0.0122106 0.0379094 0.0212115 0.00075 
1741 1 0.0112635 0.0409434 0.022236 0.0005 
1484 1 0.0112284 0.0423873 0.0218307 0.001 
1743 1 0.0159137 0.0393237 0.021355 0.001 
621 1 0.00950177 0.0421586 0.0216594 0.00075 
1661 1 0.0121924 0.041008 0.0218713 0.0005 
1487 1 0.0117857 0.0419776 0.0204999 0.0005 
1644 1 0.00867473 0.0417707 0.0205 0.0005 
1572 1 0.0109834 0.0388617 0.0224229 0.001 
1131 1 0.0143379 0.0421816 0.0205 0.0005 
1622 1 0.0136542 0.0422385 0.0218403 0.001 
1181 1 0.01533 0.0362068 0.0207492 0.00075 
2032 1 0.0143642 0.0392663 0.0221935 0.00075 
1802 1 0.0157584 0.0373599 0.0213945 0.0005 
1645 1 0.00932 0.0394336 0.0224394 0.00075 
2083 1 0.012466 0.038749 0.0222186 0.0005 
1544 1 0.0167258 0.0356165 0.0220529 0.00125 
986 1 0.0185867 0.0361703 0.0212886 0.00075 
1145 1 0.0172574 0.0370404 0.0207503 0.00075 
1120 1 0.0201229 0.0360683 0.02075 0.00075 
909 1 0.0233728 0.0365419 0.0205 0.0005 
268 1 0.0167413 0.0384104 0.0205 0.0005 
1278 1 0.0194066 0.0396322 0.0205001 0.0005 
1033 1 0.0189001 0.0391246 0.0220076 0.001 
1307 1 0.0202468 0.0372998 0.0205 0.0005 
1018 1 0.0184145 0.039777 0.0205 0.0005 
973 1 0.0195313 0.0406245 0.0205 0.0005 
1148 1 0.0173235 0.0388099 0.0212489 0.0005 
990 1 0.022043 0.0359979 0.021 0.001 
1003 1 0.0199401 0.038493 0.0207499 0.00075 
374 1 0.0232167 0.0390225 0.02075 0.00075 
394 1 0.0174374 0.0394635 0.0205 0.0005 
326 1 0.0234987 0.0403554 0.0205031 0.0005 
650 1 0.0212925 0.0401277 0.0214999 0.0015 
848 1 0.0213175 0.0378963 0.02075 0.00075 
993 1 0.0235002 0.0413566 0.0204992 0.0005 
996 1 0.0177351 0.0382917 0.0204997 0.0005 
892 1 0.0187234 0.0375651 0.0207502 0.00075 
856 1 0.0161561 0.0375866 0.0205 0.0005 
1261 1 0.0235 0.037534 0.0205 0.0005 
1117 1 0.0204894 0.0416693 0.0205 0.0005 
1268 1 0.0225398 0.0378139 0.0205 0.0005 
1135 1 0.0217901 0.0421939 0.02075 0.00075 
1422 1 0.017812 0.0410614 0.0209999 0.001 
1663 1 0.0179799 0.0372024 0.0217632 0.0005 
1062 1 0.0232493 0.0425418 0.0208175 0.00075 
1559 1 0.0186066 0.038791 0.0205 0.0005 
1709 1 0.0166147 0.04187 0.0205 0.0005 
1051 1 0.0194939 0.0372781 0.0220049 0.00075 
1165 1 0.0207215 0.0364189 0.0220809 0.00075 
1506 1 0.0170381 0.0379124 0.0216188 0.0005 
1431 1 0.0206035 0.0422631 0.0216675 0.00075 
1747 1 0.017461 0.0385992 0.02222 0.0005 
1882 1 0.0161939 0.0407875 0.0205046 0.0005 
1549 1 0.0234995 0.0359658 0.0213942 0.0005 
1023 1 0.0194607 0.041622 0.0205 0.0005 
876 1 0.02275 0.0377386 0.0222379 0.00125 
981 1 0.0232438 0.0410693 0.0214208 0.0005 
1746 1 0.0160003 0.0414048 0.0218786 0.001 
1011 1 0.0234822 0.0400644 0.021471 0.0005 
1727 1 0.0181463 0.0379071 0.022454 0.0005 
1819 1 0.0231042 0.0407217 0.022347 0.0005 
1497 1 0.000750089 0.0426533 0.0218446 0.00075 
519 1 0.000502215 0.0429683 0.0205 0.0005 
247 1 0.00171122 0.0432235 0.02075 0.00075 
309 1 0.00516891 0.0431703 0.0205 0.0005 
554 1 0.000534831 0.0443144 0.0205 0.0005 
1215 1 0.00239244 0.0443404 0.0205 0.0005 
570 1 0.0031962 0.0437166 0.0205679 0.0005 
668 1 0.000502582 0.045513 0.0205 0.0005 
386 1 0.00148253 0.0447989 0.0205 0.0005 
433 1 0.00301807 0.0451221 0.0205 0.0005 
584 1 0.00531376 0.046395 0.02075 0.00075 
242 1 0.00710923 0.0478673 0.0205 0.0005 
814 1 0.00175834 0.0493061 0.0207554 0.00075 
987 1 0.00406298 0.04659 0.0205 0.0005 
762 1 0.000521009 0.0495179 0.0205013 0.0005 
1387 1 0.0054181 0.0484338 0.0209999 0.001 
236 1 0.00203915 0.0468694 0.0220015 0.002 
1432 1 0.00471612 0.0440619 0.0205045 0.0005 
1357 1 0.00682906 0.044499 0.0205 0.0005 
1351 1 0.00365918 0.0450712 0.0213582 0.0005 
1378 1 0.00387731 0.0446064 0.0205 0.0005 
1909 1 0.00705174 0.0471237 0.0214402 0.0005 
608 1 0.000503014 0.0484154 0.0205512 0.0005 
1930 1 0.00790723 0.0466845 0.0207593 0.0005 
1635 1 0.00276323 0.0435775 0.021972 0.00075 
1822 1 0.00759199 0.0462343 0.0216226 0.0005 
1569 1 0.000500491 0.0491182 0.0220792 0.0005 
328 1 0.0105866 0.0426674 0.0205 0.0005 
1571 1 0.0124983 0.0429737 0.02075 0.00075 
533 1 0.00853524 0.0430757 0.0207596 0.00075 
1100 1 0.00978805 0.0467458 0.02075 0.00075 
883 1 0.0142036 0.048196 0.0205032 0.0005 
453 1 0.0123189 0.0488753 0.022009 0.002 
1194 1 0.0133726 0.0457881 0.0205 0.0005 
1240 1 0.014409 0.0451353 0.0207499 0.00075 
1701 1 0.0137627 0.0437815 0.02075 0.00075 
1713 1 0.0106749 0.0436921 0.0205 0.0005 
1766 1 0.014978 0.0491376 0.021301 0.00075 
1777 1 0.0080114 0.0449558 0.02075 0.00075 
1486 1 0.0113125 0.0451387 0.0207499 0.00075 
1807 1 0.011811 0.0467647 0.0205318 0.0005 
985 1 0.014484 0.0472043 0.0205028 0.0005 
1864 1 0.0137282 0.0465827 0.0213982 0.00075 
1188 1 0.0144211 0.0476741 0.0213833 0.0005 
1319 1 0.0151865 0.0479637 0.0205 0.0005 
1889 1 0.0124671 0.0447226 0.0205 0.0005 
1652 1 0.0147385 0.0467282 0.0221269 0.0005 
1511 1 0.0123716 0.0457545 0.0205 0.0005 
1688 1 0.0115429 0.0439289 0.0209836 0.0005 
1297 1 0.0157824 0.0427924 0.02075 0.00075 
969 1 0.015957 0.0489009 0.0205 0.0005 
1948 1 0.00923561 0.0483413 0.0211248 0.00075 
1494 1 0.015501 0.0477114 0.0220119 0.00075 
1600 1 0.0119414 0.0456504 0.0217044 0.0005 
1548 1 0.0151625 0.0447068 0.0217519 0.0005 
1689 1 0.0125938 0.046379 0.0219198 0.0005 
1788 1 0.0130895 0.0451636 0.0216167 0.00075 
1608 1 0.0103252 0.0443932 0.0223212 0.00125 
1097 1 0.0154006 0.0462611 0.02075 0.00075 
1530 1 0.00891046 0.0469811 0.0223471 0.001 
1133 1 0.0159058 0.0446292 0.02075 0.00075 
1481 1 0.0154102 0.04338 0.0224244 0.001 
1546 1 0.0168748 0.0425279 0.0213794 0.0005 
499 1 0.0175304 0.0490547 0.0212522 0.00125 
804 1 0.0234351 0.0437372 0.0205 0.0005 
970 1 0.0227712 0.048136 0.02075 0.00075 
1155 1 0.018262 0.0467611 0.0205 0.0005 
1271 1 0.0223459 0.0433484 0.0205 0.0005 
1289 1 0.0175607 0.0474744 0.0205001 0.0005 
1334 1 0.0173361 0.042717 0.0205 0.0005 
917 1 0.0232485 0.0495627 0.02075 0.00075 
963 1 0.0195658 0.0463295 0.0205238 0.0005 
1299 1 0.018282 0.0455367 0.02075 0.00075 
1411 1 0.0173625 0.0470807 0.0217552 0.00075 
1426 1 0.0163346 0.047532 0.02075 0.00075 