ITEM: TIMESTEP
250000
ITEM: NUMBER OF ATOMS
2186
ITEM: BOX BOUNDS mm mm mm
-2.4e-06 0.0240024
-7.8e-06 0.0780078
-3e-06 0.030003
ITEM: ATOMS id type x y z radius 
324 1 0.00780569 0.00397675 0.0219994 0.002 
291 1 0.00283011 0.00151613 0.0214997 0.0015 
368 1 0.000499892 0.00149946 0.0205 0.0005 
784 1 0.00539778 0.00321371 0.02075 0.00075 
32 1 0.00527782 0.000500041 0.0205 0.0005 
241 1 0.00446203 0.0023263 0.0205 0.0005 
815 1 0.001231 0.00218148 0.0204999 0.0005 
448 1 0.00372334 0.00300049 0.0205 0.0005 
300 1 0.000525059 0.000499902 0.0205 0.0005 
442 1 0.00103033 0.00358119 0.0209999 0.001 
816 1 0.00588466 0.00496019 0.0205 0.0005 
710 1 0.00427123 0.00050479 0.0205 0.0005 
527 1 0.000500682 0.00495053 0.0204999 0.0005 
256 1 0.000575304 0.00627669 0.0205 0.0005 
870 1 0.00767494 0.00597346 0.0205002 0.0005 
100 1 0.00452757 0.00261715 0.0214545 0.0005 
153 1 0.00487282 0.00141448 0.0205 0.0005 
486 1 0.00360952 0.00511951 0.0222493 0.00225 
722 1 0.00148791 0.00510933 0.0204999 0.0005 
864 1 0.00485386 0.000849588 0.0213445 0.0005 
503 1 0.000499968 0.0048928 0.0214982 0.0005 
561 1 0.00606181 0.0017284 0.02075 0.00075 
501 1 0.00579544 0.000502065 0.0213781 0.0005 
64 1 0.00632497 0.00639593 0.0210001 0.001 
954 1 0.00627782 0.000500001 0.0205 0.0005 
274 1 0.00767799 0.0069736 0.0205006 0.0005 
75 1 0.00171539 0.00689755 0.0207496 0.00075 
1195 1 0.00797742 0.00150938 0.0216305 0.0005 
390 1 0.000502818 0.00588963 0.0214191 0.0005 
887 1 0.00662691 0.00696306 0.0223861 0.0005 
380 1 0.00498663 0.00686573 0.0205 0.0005 
587 1 0.000499921 0.00399716 0.0223398 0.0005 
370 1 0.00747021 0.000779661 0.0207499 0.00075 
28 1 0.000750122 0.000750117 0.0218852 0.00075 
842 1 0.00624578 0.00588698 0.0224088 0.0005 
220 1 0.0071339 0.000752867 0.0222166 0.00075 
1492 1 0.000499968 0.0049851 0.0224938 0.0005 
121 1 0.00862876 0.00627349 0.0204999 0.0005 
228 1 0.00917811 0.00543804 0.0205 0.0005 
490 1 0.00977248 0.00463386 0.0205 0.0005 
199 1 0.011778 0.00328473 0.0205 0.0005 
395 1 0.0107581 0.00294608 0.0204999 0.0005 
474 1 0.0138632 0.00182107 0.02075 0.00075 
282 1 0.0103497 0.00136911 0.0204999 0.0005 
590 1 0.00984297 0.000499993 0.0205 0.0005 
176 1 0.0131412 0.000500136 0.0205 0.0005 
289 1 0.0108429 0.00049961 0.0204998 0.0005 
362 1 0.00884317 0.000516553 0.0204999 0.0005 
783 1 0.0110744 0.00404581 0.0205001 0.0005 
51 1 0.0127588 0.00306518 0.0205 0.0005 
233 1 0.00966869 0.0023866 0.0207499 0.00075 
217 1 0.0108918 0.00502901 0.0205 0.0005 
636 1 0.0120656 0.00678119 0.0205 0.0005 
549 1 0.0102448 0.00482922 0.0213595 0.0005 
126 1 0.0126171 0.00483353 0.0214999 0.0015 
307 1 0.00808503 0.00192621 0.0205 0.0005 
676 1 0.0100983 0.000909175 0.0216532 0.00075 
209 1 0.0138725 0.00612259 0.0205 0.0005 
730 1 0.00895355 0.0014691 0.0212081 0.0005 
764 1 0.0104911 0.00655963 0.02125 0.00125 
311 1 0.0147148 0.0067864 0.0216204 0.001 
763 1 0.00977632 0.00363376 0.0204999 0.0005 
66 1 0.0143504 0.004889 0.0205 0.0005 
61 1 0.0149042 0.00572332 0.0205 0.0005 
108 1 0.0149685 0.00343022 0.0212497 0.00125 
581 1 0.0125743 0.00700737 0.0220782 0.00075 
89 1 0.00848003 0.000499949 0.0214314 0.0005 
155 1 0.0119027 0.00167252 0.0212499 0.00125 
178 1 0.0149243 0.0007502 0.02075 0.00075 
364 1 0.0104961 0.00361567 0.0215222 0.00075 
895 1 0.0111008 0.000500035 0.0222778 0.0005 
598 1 0.0128896 0.000499754 0.0220939 0.0005 
161 1 0.02325 0.00075036 0.0207499 0.00075 
159 1 0.0227925 0.0033924 0.0204999 0.0005 
204 1 0.0235 0.00460829 0.0205 0.0005 
219 1 0.0214966 0.000999754 0.0209999 0.001 
333 1 0.0232497 0.00394003 0.0215263 0.00075 
142 1 0.02325 0.00225633 0.02075 0.00075 
200 1 0.0202181 0.00274979 0.0207498 0.00075 
340 1 0.0217231 0.00448949 0.0207498 0.00075 
452 1 0.0234994 0.00560829 0.0205 0.0005 
518 1 0.0189189 0.000749995 0.02075 0.00075 
185 1 0.0164843 0.00541828 0.0212498 0.00125 
31 1 0.0169108 0.00149958 0.0214997 0.0015 
123 1 0.0228819 0.000999922 0.0224423 0.001 
273 1 0.0217882 0.00291242 0.0215052 0.001 
113 1 0.0171519 0.00321885 0.0205 0.0005 
544 1 0.0186094 0.00439826 0.0209996 0.001 
577 1 0.0232501 0.00544161 0.0217157 0.00075 
652 1 0.0183789 0.00582699 0.0214482 0.0005 
290 1 0.0187259 0.00259747 0.0207499 0.00075 
281 1 0.0201327 0.00388478 0.0217267 0.00075 
190 1 0.0175924 0.00700629 0.0207499 0.00075 
57 1 0.0203576 0.00611232 0.0215037 0.0015 
143 1 0.0224032 0.0055548 0.0205 0.0005 
853 1 0.0180627 0.00579459 0.0205 0.0005 
106 1 0.0220528 0.00509179 0.0217942 0.0005 
1012 1 0.0183454 0.00696107 0.0220477 0.00075 
109 1 0.0188112 0.00688746 0.0204999 0.0005 
6 1 0.0226597 0.00694629 0.0209998 0.001 
998 1 0.000749749 0.00710223 0.0218787 0.00075 
1359 1 0.00298696 0.00716395 0.0205 0.0005 
588 1 0.00398617 0.00727913 0.0205 0.0005 
360 1 0.00671662 0.0121808 0.0204996 0.0005 
154 1 0.0048912 0.00810428 0.02075 0.00075 
13 1 0.000501733 0.00727396 0.0205 0.0005 
879 1 0.00607422 0.00778761 0.0204999 0.0005 
137 1 0.000557543 0.00827376 0.0205 0.0005 
44 1 0.005282 0.00955418 0.0207499 0.00075 
401 1 0.0060032 0.0112902 0.0218259 0.00125 
1166 1 0.00582744 0.00780383 0.0219131 0.00075 
1234 1 0.0060975 0.0089421 0.0214729 0.0005 
323 1 0.00250404 0.00921632 0.0219997 0.002 
820 1 0.000504725 0.00928127 0.0205 0.0005 
1067 1 0.00792351 0.0127517 0.0205 0.0005 
713 1 0.0023534 0.0112108 0.0205 0.0005 
881 1 0.000504323 0.0102918 0.0205 0.0005 
943 1 0.00333914 0.0113791 0.0205 0.0005 
673 1 0.00440035 0.0107677 0.02075 0.00075 
174 1 0.00100121 0.0116251 0.0209999 0.001 
447 1 0.00650198 0.00869141 0.0204999 0.0005 
1070 1 0.00769739 0.00719665 0.0217333 0.00075 
737 1 0.0053156 0.0126469 0.0205 0.0005 
646 1 0.00122029 0.0140915 0.0205 0.0005 
508 1 0.000518034 0.0131803 0.0205 0.0005 
872 1 0.00775865 0.0115384 0.0207513 0.00075 
439 1 0.00670312 0.0137609 0.0212507 0.00125 
891 1 0.00708897 0.00780496 0.0205 0.0005 
427 1 0.00458066 0.0076765 0.0218827 0.0005 
1190 1 0.00500715 0.00884466 0.0217504 0.0005 
479 1 0.000503182 0.0130458 0.0215495 0.0005 
911 1 0.00429041 0.0109652 0.0219794 0.0005 
296 1 0.00335606 0.0135414 0.0222501 0.00225 
35 1 0.00803058 0.00945014 0.0215427 0.0015 
611 1 0.00828224 0.0136851 0.0205 0.0005 
171 1 0.013249 0.00718448 0.02075 0.00075 
275 1 0.0142512 0.00830068 0.0207499 0.00075 
46 1 0.00879177 0.00748724 0.0207498 0.00075 
556 1 0.0137864 0.00975722 0.02075 0.00075 
287 1 0.0117083 0.0107764 0.0205 0.0005 
865 1 0.0137166 0.0118691 0.0205002 0.0005 
756 1 0.0117908 0.00903573 0.0214998 0.0015 
318 1 0.0139562 0.00889317 0.022096 0.00075 
686 1 0.00968036 0.00900771 0.0205009 0.0005 
10 1 0.0154444 0.00857701 0.0205 0.0005 
569 1 0.0129777 0.0108508 0.0205 0.0005 
252 1 0.00894034 0.0109314 0.0205 0.0005 
188 1 0.0150066 0.0130269 0.0214998 0.0015 
772 1 0.0127281 0.0120222 0.0205 0.0005 
709 1 0.0100103 0.010189 0.0207501 0.00075 
1061 1 0.0117588 0.0117757 0.0204999 0.0005 
110 1 0.0132827 0.0128568 0.0205 0.0005 
1118 1 0.00996466 0.00983666 0.0219582 0.0005 
59 1 0.0121265 0.0128569 0.0205004 0.0005 
974 1 0.0115673 0.014116 0.0205 0.0005 
734 1 0.0127012 0.0126706 0.0215959 0.00075 
968 1 0.0122883 0.0112297 0.0215327 0.00075 
62 1 0.00996786 0.0126284 0.0220215 0.002 
1238 1 0.00981478 0.00815692 0.0210144 0.0005 
1028 1 0.0137791 0.0110772 0.0214661 0.00075 
1653 1 0.0156767 0.00899992 0.0213759 0.0005 
80 1 0.0153912 0.0104594 0.02118 0.001 
810 1 0.00975928 0.0082026 0.0222631 0.00075 
714 1 0.0160348 0.0116313 0.0205 0.0005 
1922 1 0.0162516 0.00822103 0.0216265 0.0005 
192 1 0.016129 0.0073384 0.0207499 0.00075 
1846 1 0.0161303 0.00933062 0.0205 0.0005 
342 1 0.017079 0.0123116 0.02075 0.00075 
319 1 0.0213365 0.00753982 0.0205 0.0005 
293 1 0.0189013 0.0108543 0.0217497 0.00175 
735 1 0.0210972 0.00971381 0.0213639 0.0005 
308 1 0.0202125 0.0085565 0.0209996 0.001 
49 1 0.017509 0.009605 0.0204998 0.0005 
146 1 0.0189689 0.00787493 0.0205 0.0005 
578 1 0.0227799 0.00894391 0.0209999 0.001 
139 1 0.0172378 0.0140372 0.0209999 0.001 
90 1 0.0185127 0.00838697 0.021545 0.00075 
71 1 0.0214067 0.009317 0.0204999 0.0005 
659 1 0.017162 0.00844223 0.0207991 0.00075 
967 1 0.0167016 0.0101948 0.0204999 0.0005 
130 1 0.0215148 0.0117799 0.0205 0.0005 
41 1 0.0218354 0.0105211 0.02075 0.00075 
231 1 0.0235 0.010161 0.0205 0.0005 
279 1 0.0235002 0.00789798 0.0217979 0.0005 
693 1 0.0214863 0.00776509 0.021463 0.0005 
725 1 0.0232499 0.0111853 0.0211713 0.00075 
697 1 0.0206092 0.00992854 0.0205 0.0005 
330 1 0.0226521 0.012495 0.02075 0.00075 
78 1 0.0224936 0.0137594 0.0205 0.0005 
800 1 0.0207614 0.0111219 0.0205 0.0005 
538 1 0.0234999 0.0123088 0.0216654 0.0005 
1236 1 0.0188118 0.0131313 0.0212897 0.0005 
812 1 0.021958 0.0115912 0.0213934 0.0005 
944 1 0.0234999 0.0132422 0.0212847 0.0005 
794 1 0.0179277 0.0128942 0.0216926 0.0005 
592 1 0.0182485 0.0127592 0.0205007 0.0005 
910 1 0.0214892 0.00879523 0.0221723 0.00075 
523 1 0.0186198 0.0137152 0.0205001 0.0005 
956 1 0.0192462 0.0126932 0.0204999 0.0005 
350 1 0.0207808 0.0134934 0.021502 0.0015 
639 1 0.0227477 0.0138556 0.0215254 0.0005 
1899 1 0.0166627 0.00966556 0.0214201 0.0005 
1138 1 0.02325 0.0101099 0.0222172 0.00075 
272 1 0.023489 0.0138618 0.0205 0.0005 
1493 1 0.0185344 0.013824 0.0223536 0.00075 
770 1 0.0234987 0.0113714 0.0223825 0.0005 
196 1 0.000597897 0.0141831 0.0212961 0.0005 
782 1 0.000500292 0.0144002 0.0222787 0.0005 
70 1 0.000500751 0.0147857 0.0204999 0.0005 
888 1 0.00328635 0.0157481 0.0205 0.0005 
550 1 0.000834351 0.0187216 0.0205 0.0005 
1 1 0.00724084 0.0156373 0.02075 0.00075 
529 1 0.00125581 0.0161747 0.0212498 0.00125 
269 1 0.00693208 0.0179509 0.0212547 0.00125 
19 1 0.0047741 0.0165809 0.0212499 0.00125 
1077 1 0.00635369 0.0164818 0.0205 0.0005 
877 1 0.0075363 0.0204332 0.0206099 0.0005 
1060 1 0.00795922 0.0154703 0.0217839 0.0005 
1004 1 0.00526005 0.0191848 0.0207509 0.00075 
1570 1 0.00747184 0.0194413 0.0205 0.0005 
688 1 0.000499996 0.019346 0.0212059 0.0005 
896 1 0.00645434 0.0194561 0.0205002 0.0005 
1660 1 0.00459983 0.0181534 0.0205007 0.0005 
972 1 0.00589039 0.0152769 0.0222782 0.00075 
223 1 0.00292035 0.0189779 0.0217513 0.00175 
700 1 0.00425645 0.0208385 0.02075 0.00075 
1416 1 0.00278623 0.0208482 0.0205 0.0005 
436 1 0.00739857 0.0163636 0.021885 0.0005 
678 1 0.00100418 0.0208465 0.0209999 0.001 
315 1 0.00300373 0.0165192 0.0221908 0.00075 
600 1 0.00609905 0.0208276 0.0215276 0.00125 
576 1 0.000749676 0.0178379 0.022238 0.00075 
1094 1 0.00534984 0.0186591 0.0222523 0.00075 
1859 1 0.00737515 0.019445 0.0221781 0.0005 
1196 1 0.00816633 0.0171982 0.0222601 0.0005 
748 1 0.00818125 0.0144165 0.021921 0.0005 
695 1 0.00863891 0.0148424 0.0208101 0.00075 
54 1 0.00869875 0.0165811 0.021 0.001 
786 1 0.00930947 0.0151089 0.0218669 0.0005 
180 1 0.00985622 0.0191607 0.0220028 0.002 
221 1 0.011151 0.015889 0.0214998 0.0015 
118 1 0.0139077 0.0155354 0.0212499 0.00125 
717 1 0.0121595 0.0187739 0.0205 0.0005 
1232 1 0.00984336 0.0146489 0.0205374 0.0005 
934 1 0.0134214 0.0191929 0.0207616 0.00075 
1310 1 0.012252 0.0177547 0.0205 0.0005 
1212 1 0.0146892 0.0191073 0.0205007 0.0005 
838 1 0.0143495 0.0177282 0.0209995 0.001 
624 1 0.0128344 0.0167051 0.0205 0.0005 
1035 1 0.0111893 0.0176454 0.0205 0.0005 
43 1 0.0158138 0.0147955 0.0205 0.0005 
1592 1 0.012037 0.0197841 0.0205 0.0005 
1577 1 0.0148756 0.0201028 0.020521 0.0005 
1636 1 0.013087 0.0208945 0.0209994 0.001 
1757 1 0.0145514 0.0192363 0.0217486 0.0005 
1842 1 0.0144833 0.0204968 0.0213895 0.0005 
1697 1 0.00850936 0.0206365 0.0205 0.0005 
1350 1 0.0148397 0.0211335 0.0205 0.0005 
2033 1 0.0123197 0.019347 0.0213729 0.0005 
1264 1 0.009927 0.0211759 0.0205 0.0005 
1338 1 0.0158975 0.0173026 0.0205 0.0005 
1164 1 0.0113508 0.0211027 0.0207528 0.00075 
657 1 0.0144242 0.0184064 0.022336 0.0005 
1755 1 0.014554 0.0202095 0.022545 0.0005 
189 1 0.0154459 0.0162016 0.0205 0.0005 
1144 1 0.0080226 0.0208823 0.021409 0.0005 
2117 1 0.0153916 0.0149336 0.0219789 0.0005 
982 1 0.0158521 0.0210631 0.0205 0.0005 
1765 1 0.0134393 0.0195099 0.0222487 0.00075 
1193 1 0.018669 0.0144055 0.0212556 0.0005 
198 1 0.0162636 0.0193021 0.0212723 0.00125 
345 1 0.0193231 0.0144268 0.0204998 0.0005 
741 1 0.0180688 0.0151108 0.0216382 0.0005 
450 1 0.0179412 0.0152702 0.0205 0.0005 
1311 1 0.0168154 0.020773 0.0205001 0.0005 
947 1 0.0178123 0.0190432 0.0205 0.0005 
542 1 0.0181361 0.0162746 0.02209 0.00075 
260 1 0.0176696 0.0175669 0.0209999 0.001 
591 1 0.0222801 0.0149914 0.0207492 0.00075 
465 1 0.0187707 0.0166799 0.0204998 0.0005 
719 1 0.0190446 0.0155713 0.0210076 0.00075 
628 1 0.0235001 0.0160737 0.0205 0.0005 
42 1 0.0224294 0.0166679 0.0207507 0.00075 
747 1 0.0210707 0.0151998 0.0205 0.0005 
813 1 0.0203084 0.0160593 0.0205 0.0005 
787 1 0.0190851 0.017629 0.0205 0.0005 
492 1 0.0198001 0.0169287 0.0204997 0.0005 
238 1 0.0234986 0.0172663 0.0205 0.0005 
1216 1 0.0198949 0.0165942 0.0217001 0.00075 
1230 1 0.016924 0.0159548 0.02075 0.00075 
566 1 0.0209544 0.0173422 0.0207508 0.00075 
1333 1 0.0213104 0.0161706 0.0205 0.0005 
1091 1 0.0199782 0.0180817 0.0205 0.0005 
1398 1 0.0207467 0.0203945 0.0205001 0.0005 
1189 1 0.0235 0.0144748 0.0213005 0.0005 
1427 1 0.0200774 0.0150832 0.0205 0.0005 
898 1 0.0190411 0.0175013 0.0216031 0.0005 
1253 1 0.0192521 0.0148031 0.0219914 0.0005 
1452 1 0.0204816 0.0191986 0.02075 0.00075 
1488 1 0.0190215 0.0188521 0.0207531 0.00075 
1124 1 0.023501 0.0150738 0.0204997 0.0005 
1137 1 0.0208892 0.0172935 0.0219989 0.0005 
1020 1 0.0224579 0.0186804 0.0217563 0.0015 
1401 1 0.0214718 0.0159009 0.0220055 0.001 
1298 1 0.0200705 0.0153726 0.0219166 0.0005 
1170 1 0.0232057 0.0157859 0.0216886 0.00075 
1831 1 0.0179573 0.0197404 0.0212033 0.0005 
1796 1 0.0193601 0.0184108 0.0218789 0.0005 
957 1 0.0234658 0.0198863 0.0205079 0.0005 
1320 1 0.01895 0.020352 0.02075 0.00075 
1598 1 0.0200931 0.0204951 0.0212506 0.0005 
1437 1 0.0234997 0.0203813 0.0220758 0.0005 
1184 1 0.0235 0.0169943 0.0214626 0.0005 
1738 1 0.0178166 0.0208252 0.0205 0.0005 
1692 1 0.0203659 0.0181847 0.0214833 0.0005 
1828 1 0.0182771 0.0186669 0.0218514 0.0005 
1202 1 0.021486 0.0203799 0.0211735 0.0005 
1460 1 0.022568 0.0207118 0.0224243 0.0005 
1648 1 0.0176903 0.0211501 0.0222296 0.00125 
1105 1 0.0213442 0.0211964 0.0205 0.0005 
1219 1 0.0227645 0.0211445 0.021 0.001 
1984 1 0.0187097 0.0197154 0.0222684 0.0005 
1413 1 0.0202013 0.0195724 0.0224356 0.001 
1767 1 0.0206003 0.0181269 0.0224714 0.0005 
1293 1 0.00216954 0.0216481 0.0205 0.0005 
482 1 0.000507907 0.0222234 0.0205 0.0005 
12 1 0.00143198 0.0230299 0.02075 0.00075 
952 1 0.0049902 0.0244649 0.0205 0.0005 
1081 1 0.00676131 0.02437 0.0204998 0.0005 
904 1 0.00587236 0.0238673 0.0205001 0.0005 
1439 1 0.0046952 0.0229903 0.0207502 0.00075 
831 1 0.00356454 0.0243025 0.0209999 0.001 
534 1 0.000761589 0.0243771 0.0207499 0.00075 
1423 1 0.00305934 0.0258614 0.0205 0.0005 
1406 1 0.00212482 0.0253933 0.0205 0.0005 
483 1 0.000499557 0.0260691 0.0204995 0.0005 
1394 1 0.00687716 0.0228717 0.021 0.001 
1483 1 0.00504049 0.0217987 0.0205 0.0005 
1512 1 0.0020105 0.024326 0.0205 0.0005 
752 1 0.00427783 0.0255904 0.0205 0.0005 
919 1 0.00766987 0.0275108 0.0217577 0.00175 
1578 1 0.0028047 0.0213167 0.0213831 0.0005 
978 1 0.0070435 0.0257532 0.0205001 0.0005 
1805 1 0.00291074 0.0226807 0.0207499 0.00075 
1576 1 0.000502856 0.0254695 0.0212994 0.0005 
1373 1 0.00589563 0.0253275 0.0207527 0.00075 
1860 1 0.00394394 0.0220229 0.0205 0.0005 
946 1 0.00543805 0.0240097 0.0223025 0.00125 
1625 1 0.000500178 0.0227466 0.0215335 0.0005 
1455 1 0.00190411 0.0247165 0.0220446 0.001 
1942 1 0.00414882 0.0219625 0.0217422 0.00075 
338 1 0.00175362 0.0274505 0.0217561 0.00175 
1698 1 0.00721342 0.0247928 0.0215856 0.00075 
1682 1 0.00751063 0.021357 0.0224411 0.0005 
991 1 0.00471094 0.0276275 0.0212513 0.00125 
1662 1 0.00234408 0.0230236 0.0220957 0.00075 
1926 1 0.000504494 0.0252201 0.0222676 0.0005 
1208 1 0.00793744 0.0246044 0.0205 0.0005 
780 1 0.0129169 0.0231302 0.0205041 0.0005 
353 1 0.0150144 0.02346 0.0205001 0.0005 
1294 1 0.0096343 0.0228304 0.0205 0.0005 
1180 1 0.0103232 0.0220958 0.0205 0.0005 
1462 1 0.012112 0.0237481 0.0205 0.0005 
1467 1 0.0124886 0.0222063 0.020515 0.0005 
1343 1 0.00884047 0.0218156 0.0207498 0.00075 
1552 1 0.0114233 0.0225642 0.0211206 0.00075 
1602 1 0.0121057 0.0247591 0.0205 0.0005 
1621 1 0.0138003 0.0239976 0.0207829 0.00075 
861 1 0.0153084 0.0246486 0.02075 0.00075 
1643 1 0.00875614 0.0257765 0.0205 0.0005 
1539 1 0.0134904 0.022296 0.0205163 0.0005 
1330 1 0.0150426 0.0237845 0.0217896 0.0005 
1192 1 0.0152008 0.0259785 0.0205 0.0005 
1041 1 0.0102227 0.0242772 0.0219606 0.0015 
1614 1 0.00848736 0.0235097 0.0207499 0.00075 
1775 1 0.0156296 0.0229532 0.0211233 0.0005 
1693 1 0.01526 0.0220536 0.0205 0.0005 
1618 1 0.00843395 0.0252564 0.0212999 0.0005 
1221 1 0.0144113 0.022699 0.021287 0.00075 
1915 1 0.0142807 0.0253936 0.0205 0.0005 
1869 1 0.00988847 0.0256219 0.0205 0.0005 
1601 1 0.0102353 0.0220062 0.0224573 0.00075 
1655 1 0.00854823 0.0224592 0.0223505 0.001 
1659 1 0.0154799 0.0214684 0.0219565 0.001 
1870 1 0.01557 0.0282082 0.02075 0.00075 
2177 1 0.013889 0.0279356 0.0224671 0.0005 
1563 1 0.0168294 0.0239275 0.0204997 0.0005 
1017 1 0.0165499 0.0221947 0.0207501 0.00075 
144 1 0.0168964 0.0253395 0.0210009 0.001 
152 1 0.0209933 0.0236268 0.0205 0.0005 
1292 1 0.0186345 0.0243743 0.02075 0.00075 
512 1 0.0209732 0.0276436 0.0205 0.0005 
862 1 0.0172804 0.0274118 0.0205027 0.0005 
1288 1 0.0177612 0.0223729 0.0204998 0.0005 
1048 1 0.0197718 0.0216068 0.02075 0.00075 
1415 1 0.0215884 0.0221667 0.0205 0.0005 
1087 1 0.0234997 0.0256648 0.0205 0.0005 
1176 1 0.0193379 0.0262328 0.02075 0.00075 
1269 1 0.02325 0.0229698 0.02075 0.00075 
1507 1 0.0235 0.0260545 0.0214209 0.0005 
1574 1 0.0234965 0.0266761 0.0205 0.0005 
1472 1 0.0232265 0.024471 0.02075 0.00075 
1590 1 0.0220526 0.0241082 0.0205 0.0005 
1634 1 0.0196236 0.0231576 0.0207502 0.00075 
908 1 0.0218611 0.0231277 0.020545 0.0005 
1646 1 0.0187574 0.0222921 0.0204999 0.0005 
1927 1 0.0180713 0.0268506 0.0208307 0.0005 
1897 1 0.0199248 0.0243196 0.0216502 0.00075 
1370 1 0.0232405 0.0281281 0.02075 0.00075 
1243 1 0.0212576 0.025774 0.0212494 0.00125 
1978 1 0.018286 0.0255979 0.0205008 0.0005 
1881 1 0.0189427 0.0252166 0.0216207 0.0005 
1514 1 0.0208631 0.0217266 0.0224215 0.00125 
1753 1 0.0161843 0.0237909 0.0212518 0.0005 
1925 1 0.0214434 0.0239489 0.0213537 0.0005 
1768 1 0.0176701 0.0279778 0.0213091 0.0005 
1794 1 0.0175686 0.0233224 0.0216556 0.001 
1527 1 0.019637 0.026426 0.0222222 0.00075 
1876 1 0.0163421 0.0240156 0.0222206 0.0005 
1106 1 0.019464 0.028166 0.0212499 0.00125 
1323 1 0.021441 0.0282695 0.021124 0.0005 
1604 1 0.0229952 0.0224863 0.0224652 0.001 
1758 1 0.0179246 0.0261884 0.0224915 0.001 
162 1 0.000554458 0.0326295 0.0205 0.0005 
259 1 0.00168469 0.0330408 0.0205 0.0005 
522 1 0.000762667 0.0338485 0.0207499 0.00075 
672 1 0.00619037 0.0351836 0.02075 0.00075 
348 1 0.0021319 0.0293203 0.0205 0.0005 
337 1 0.00313252 0.0338253 0.02075 0.00075 
897 1 0.000503214 0.035069 0.0205 0.0005 
980 1 0.00653572 0.029061 0.0205 0.0005 
638 1 0.00415763 0.0349203 0.02075 0.00075 
925 1 0.00635441 0.0320143 0.0212499 0.00125 
1103 1 0.0053931 0.0291757 0.0205 0.0005 
506 1 0.000501664 0.0343722 0.0218545 0.0005 
1480 1 0.00797867 0.0309588 0.02075 0.00075 
1084 1 0.00174062 0.0315345 0.0207499 0.00075 
1355 1 0.00197451 0.0342425 0.0205 0.0005 
1143 1 0.00345573 0.0291012 0.0207498 0.00075 
1451 1 0.00437964 0.0301707 0.0205076 0.0005 
412 1 0.00116735 0.0326557 0.0219649 0.001 
1285 1 0.000937876 0.0296122 0.02075 0.00075 
1607 1 0.00219716 0.0302829 0.0210211 0.0005 
1529 1 0.00525835 0.0344007 0.0216265 0.00075 
471 1 0.0075477 0.0351002 0.0222164 0.00125 
1141 1 0.00368572 0.0317816 0.021883 0.0015 
1290 1 0.000502777 0.0309738 0.0213993 0.0005 
1449 1 0.00286587 0.029804 0.0218857 0.0005 
1761 1 0.00512892 0.0331647 0.0217823 0.0005 
1760 1 0.00224874 0.0337367 0.0221315 0.0005 
2165 1 0.0126474 0.0313086 0.0221661 0.00075 
1880 1 0.00823805 0.0317448 0.0216963 0.0005 
505 1 0.00913393 0.0305127 0.0205 0.0005 
886 1 0.00844865 0.0329479 0.0205 0.0005 
138 1 0.00802696 0.029734 0.0205 0.0005 
1249 1 0.0147704 0.0319574 0.02075 0.00075 
1154 1 0.0110069 0.0336595 0.0205 0.0005 
609 1 0.0119603 0.0333498 0.0205 0.0005 
1134 1 0.00895732 0.0342599 0.02075 0.00075 
1340 1 0.0104724 0.0348547 0.0205 0.0005 
1678 1 0.0130164 0.0340514 0.0205 0.0005 
1703 1 0.013142 0.0310642 0.0205 0.0005 
1095 1 0.0140969 0.0343909 0.0205 0.0005 
1872 1 0.0103423 0.0316312 0.0212504 0.00125 
1167 1 0.015546 0.0349248 0.0205 0.0005 
1815 1 0.0102916 0.0340321 0.0210915 0.0005 
1348 1 0.0143446 0.0304728 0.0205 0.0005 
1594 1 0.0148228 0.0349809 0.0211882 0.0005 
1935 1 0.00939452 0.0301794 0.021488 0.0005 
1943 1 0.0121702 0.0323081 0.0205 0.0005 
2043 1 0.00986069 0.0295523 0.0207263 0.0005 
2053 1 0.0154497 0.0308535 0.0217411 0.0005 
2021 1 0.00835135 0.0298942 0.0219085 0.0005 
2044 1 0.0159646 0.0299503 0.0223175 0.0005 
2125 1 0.0136263 0.0340436 0.0218496 0.0005 
1867 1 0.0101486 0.035347 0.0221482 0.00075 
2142 1 0.0108717 0.0296574 0.0224875 0.00075 
698 1 0.0163811 0.0313609 0.0208819 0.00075 
1786 1 0.0173574 0.0285526 0.0205203 0.0005 
1409 1 0.0182108 0.0291302 0.0205 0.0005 
1113 1 0.0189296 0.0301246 0.02075 0.00075 
1361 1 0.0164429 0.0294282 0.02075 0.00075 
1044 1 0.0214722 0.0304245 0.0212499 0.00125 
557 1 0.0203842 0.0341942 0.02125 0.00125 
1015 1 0.0219058 0.0288976 0.0205 0.0005 
304 1 0.0225167 0.031611 0.0204998 0.0005 
1083 1 0.0160382 0.0334212 0.0212499 0.00125 
1142 1 0.0220663 0.0342618 0.0205 0.0005 
1335 1 0.0175115 0.0325507 0.0205 0.0005 
1273 1 0.0227819 0.0347142 0.0210322 0.0005 
1414 1 0.0234995 0.0341454 0.0205 0.0005 
1016 1 0.0232493 0.0325921 0.0207499 0.00075 
959 1 0.0191166 0.0352217 0.0205 0.0005 
1531 1 0.0193934 0.0329477 0.0205 0.0005 
1329 1 0.0234901 0.0293392 0.020521 0.0005 
1318 1 0.0202903 0.0324962 0.0205014 0.0005 
1305 1 0.0193475 0.0315776 0.02075 0.00075 
1258 1 0.023405 0.0303978 0.0205001 0.0005 
1695 1 0.0181322 0.0342061 0.0209997 0.001 
1224 1 0.0178662 0.0311904 0.0207521 0.00075 
878 1 0.0232501 0.0335636 0.0218927 0.00075 
1213 1 0.0215097 0.0325881 0.0207774 0.00075 
1447 1 0.0181583 0.0304303 0.0220416 0.00075 
1603 1 0.0176184 0.0298748 0.020808 0.0005 
1403 1 0.0197241 0.0304797 0.0216487 0.0005 
1445 1 0.0235 0.0313933 0.0205 0.0005 
1362 1 0.0232493 0.0312095 0.021725 0.00075 
1093 1 0.0169202 0.0312214 0.0226088 0.00075 
1442 1 0.0204862 0.0292869 0.0221421 0.0005 
1626 1 0.0179808 0.03234 0.0213961 0.0005 
889 1 0.0234987 0.0351656 0.0205 0.0005 
1534 1 0.0231856 0.0292189 0.0217781 0.00075 
1579 1 0.0217252 0.0330603 0.0222271 0.00075 
1227 1 0.0184892 0.0332342 0.0224102 0.00075 
1854 1 0.0177764 0.0287447 0.0222953 0.00075 
1073 1 0.00485179 0.0362746 0.02075 0.00075 
249 1 0.00212161 0.0362856 0.0219998 0.002 
960 1 0.00638349 0.0366711 0.02075 0.00075 
535 1 0.000503506 0.0380084 0.0205 0.0005 
844 1 0.0039186 0.0371675 0.0205 0.0005 
60 1 0.00494841 0.0389151 0.0217496 0.00175 
451 1 0.000750123 0.0417824 0.02075 0.00075 
366 1 0.00148744 0.0381969 0.0205 0.0005 
680 1 0.00266008 0.0386752 0.02075 0.00075 
733 1 0.00198548 0.0417258 0.0205003 0.0005 
1108 1 0.000792004 0.0395569 0.0207495 0.00075 
615 1 0.0064555 0.0412117 0.0205029 0.0005 
1186 1 0.0029037 0.0425167 0.0205 0.0005 
316 1 0.000499903 0.0385095 0.0213655 0.0005 
1276 1 0.00280893 0.0404716 0.0209999 0.001 
1177 1 0.00454445 0.0418821 0.0212499 0.00125 
1372 1 0.00786859 0.0393851 0.0218389 0.00075 
949 1 0.0069984 0.0399391 0.02075 0.00075 
1191 1 0.0011206 0.040675 0.0220544 0.001 
91 1 0.00713668 0.0381942 0.02075 0.00075 
1537 1 0.00221065 0.042333 0.021571 0.00075 
1674 1 0.00722923 0.0371999 0.0218702 0.00075 
1179 1 0.0075225 0.0416227 0.0221637 0.0015 
1586 1 0.00559287 0.0410564 0.0223819 0.0005 
924 1 0.0115424 0.0356539 0.0205001 0.0005 
1762 1 0.0126702 0.0358433 0.0218864 0.0005 
2018 1 0.0110852 0.0367299 0.0220972 0.0005 
626 1 0.0089009 0.0402832 0.02075 0.00075 
1353 1 0.010098 0.0373928 0.0211367 0.0005 
1419 1 0.0126036 0.0364635 0.02075 0.00075 
640 1 0.00988546 0.0359517 0.02075 0.00075 
514 1 0.0101057 0.0419621 0.0205 0.0005 
641 1 0.0106035 0.0406382 0.0209999 0.001 
1019 1 0.0142061 0.0374562 0.0205 0.0005 
669 1 0.00917245 0.0385697 0.0209999 0.001 
835 1 0.00815516 0.0369949 0.0205 0.0005 
802 1 0.0126409 0.0411146 0.0207499 0.00075 
1043 1 0.0142882 0.0405701 0.0209999 0.001 
1107 1 0.0111406 0.0368109 0.0207501 0.00075 
901 1 0.0108827 0.0382887 0.0207499 0.00075 
1149 1 0.0138217 0.0355876 0.02075 0.00075 
1482 1 0.0120551 0.0396354 0.02075 0.00075 
1265 1 0.0130917 0.0388843 0.0205 0.0005 
1705 1 0.0142819 0.0384808 0.0205 0.0005 
1716 1 0.0152589 0.0416136 0.0205 0.0005 
912 1 0.0089691 0.0368256 0.0219578 0.001 
1346 1 0.0123439 0.0379561 0.0208941 0.00075 
1741 1 0.0115788 0.0410371 0.0220675 0.0005 
1484 1 0.011236 0.0424752 0.0218135 0.001 
1743 1 0.0158343 0.0393292 0.0212623 0.001 
621 1 0.00951388 0.0424318 0.0214968 0.00075 
1661 1 0.0125639 0.0408901 0.0219772 0.0005 
1487 1 0.011708 0.0419135 0.0205002 0.0005 
1644 1 0.00874122 0.0417214 0.0205 0.0005 
1572 1 0.0110902 0.0389222 0.0223678 0.001 
1131 1 0.014472 0.0423163 0.0205 0.0005 
1622 1 0.0136763 0.0422901 0.0218213 0.001 
1181 1 0.015053 0.0365132 0.02075 0.00075 
2032 1 0.0142444 0.0391217 0.0219807 0.00075 
1802 1 0.0154434 0.037502 0.0214093 0.0005 
1645 1 0.00946514 0.0397816 0.0222347 0.00075 
2083 1 0.0125618 0.0387509 0.0220011 0.0005 
1746 1 0.0159789 0.0412391 0.0218384 0.001 
856 1 0.0157632 0.0377683 0.0205 0.0005 
1923 1 0.013519 0.0408169 0.0222644 0.0005 
2003 1 0.0135216 0.0369561 0.0222259 0.00075 
1544 1 0.0165255 0.0357748 0.0219378 0.00125 
986 1 0.0183352 0.0361767 0.0210037 0.00075 
1145 1 0.0171305 0.0372661 0.0207499 0.00075 
1120 1 0.0199662 0.0361038 0.0207499 0.00075 
909 1 0.0233783 0.0366056 0.0205 0.0005 
268 1 0.0167717 0.0384401 0.0205 0.0005 
1278 1 0.0194783 0.0396095 0.0205 0.0005 
1033 1 0.0187198 0.0393725 0.0219177 0.001 
1307 1 0.02027 0.0372935 0.0205 0.0005 
1018 1 0.0185097 0.039866 0.0205 0.0005 
973 1 0.0195859 0.0406043 0.0205 0.0005 
1148 1 0.0173987 0.0391223 0.0212016 0.0005 
990 1 0.0220304 0.0361315 0.0210006 0.001 
1003 1 0.0199177 0.0384664 0.0207505 0.00075 
374 1 0.0232013 0.0391248 0.02075 0.00075 
394 1 0.0172074 0.0398103 0.0205005 0.0005 
326 1 0.0235 0.0405664 0.0205 0.0005 
650 1 0.0213666 0.0402353 0.0214999 0.0015 
848 1 0.0213295 0.0379576 0.02075 0.00075 
993 1 0.0234891 0.0415947 0.0205 0.0005 
996 1 0.017769 0.0385134 0.0205 0.0005 
892 1 0.0186208 0.0376333 0.0207499 0.00075 
1261 1 0.0235 0.0375982 0.0205 0.0005 
1117 1 0.0204687 0.0417192 0.0205 0.0005 
1268 1 0.022555 0.0379329 0.0205 0.0005 
1135 1 0.0218322 0.0423061 0.02075 0.00075 
1422 1 0.0178019 0.0410947 0.0210002 0.001 
1663 1 0.0177788 0.0378282 0.0216608 0.0005 
1559 1 0.0187175 0.0388848 0.0204996 0.0005 
1709 1 0.0165918 0.0418264 0.0205 0.0005 
1051 1 0.0193983 0.0372456 0.0219725 0.00075 
1165 1 0.0205939 0.0363431 0.022091 0.00075 
1506 1 0.0166518 0.0381037 0.0215446 0.0005 
1431 1 0.0207093 0.0424463 0.0217345 0.00075 
1747 1 0.0173275 0.0387843 0.02214 0.0005 
1882 1 0.0162196 0.0406036 0.0205 0.0005 
1549 1 0.0234895 0.0358061 0.0212679 0.0005 
1023 1 0.0193736 0.0415834 0.0205001 0.0005 
876 1 0.02275 0.0378675 0.0222385 0.00125 
981 1 0.0230191 0.0413806 0.0213775 0.0005 
1011 1 0.0234239 0.0402548 0.0214471 0.0005 
1819 1 0.023117 0.0407629 0.0223274 0.0005 
1546 1 0.0168265 0.0423723 0.02134 0.0005 
811 1 0.0207512 0.0378217 0.022288 0.00075 
682 1 0.00774909 0.0427521 0.0205 0.0005 
1301 1 0.0062415 0.042814 0.0207494 0.00075 
1497 1 0.000753742 0.0426506 0.0219733 0.00075 
519 1 0.00050298 0.0432027 0.0205 0.0005 
247 1 0.00169581 0.0434834 0.02075 0.00075 
309 1 0.00512959 0.0433529 0.0205 0.0005 
554 1 0.000565221 0.044604 0.0205 0.0005 
1215 1 0.00240005 0.0444933 0.0205 0.0005 
570 1 0.00326951 0.0438262 0.0205179 0.0005 
668 1 0.000510989 0.0458969 0.0205 0.0005 
386 1 0.0015249 0.0452222 0.0205 0.0005 
433 1 0.00290322 0.0453677 0.0205 0.0005 
584 1 0.00540542 0.0467857 0.0207551 0.00075 
242 1 0.00744905 0.048862 0.0205 0.0005 
987 1 0.00413883 0.0469892 0.0205 0.0005 
1387 1 0.00550028 0.048908 0.0210004 0.001 
236 1 0.0021523 0.0472235 0.0219998 0.002 
1432 1 0.00442643 0.0440643 0.0205 0.0005 
1357 1 0.00709712 0.0443777 0.0205033 0.0005 
1351 1 0.00349878 0.0452175 0.0213573 0.0005 
1378 1 0.00368828 0.0447389 0.0205 0.0005 
1909 1 0.0069272 0.0469509 0.020632 0.0005 
608 1 0.000579287 0.0484857 0.0205 0.0005 
1930 1 0.00798792 0.0468555 0.0205 0.0005 
1635 1 0.0028869 0.0437218 0.0217105 0.00075 
1822 1 0.00749014 0.0463835 0.021304 0.0005 
1569 1 0.000500616 0.0492393 0.0214375 0.0005 
1777 1 0.008004 0.0453319 0.020755 0.00075 
1985 1 0.00705215 0.0476823 0.0217391 0.00075 
1787 1 0.00554544 0.0474857 0.0218007 0.0005 
1664 1 0.00474844 0.0487971 0.0225107 0.0005 
545 1 0.00134549 0.0442938 0.0223146 0.001 
1901 1 0.00473294 0.0470141 0.0221742 0.0005 
2151 1 0.00720504 0.0491813 0.0218035 0.0005 
328 1 0.0105582 0.0429257 0.0205 0.0005 
1571 1 0.0125165 0.0430433 0.0207498 0.00075 
533 1 0.00873832 0.0434766 0.02075 0.00075 
1100 1 0.0100527 0.0467868 0.0207521 0.00075 
883 1 0.0142389 0.0482301 0.0204999 0.0005 
453 1 0.0123246 0.0488088 0.0219999 0.002 
1194 1 0.0130819 0.0458109 0.0205 0.0005 
1240 1 0.0141417 0.0451516 0.02075 0.00075 
1701 1 0.0139528 0.0436467 0.02075 0.00075 
1713 1 0.0102 0.0439122 0.0204986 0.0005 
1766 1 0.0149201 0.0490705 0.0211257 0.00075 
1486 1 0.0112834 0.0452362 0.02075 0.00075 
1807 1 0.0112823 0.0467273 0.0205005 0.0005 
985 1 0.014307 0.0472325 0.0205001 0.0005 
1864 1 0.0137175 0.0465101 0.0213324 0.00075 
1188 1 0.014485 0.0477126 0.0213605 0.0005 
1319 1 0.015331 0.0480663 0.0205 0.0005 
1889 1 0.0124944 0.044991 0.0205 0.0005 