ITEM: TIMESTEP
360000
ITEM: NUMBER OF ATOMS
2925
ITEM: BOX BOUNDS mm mm mm
-2.4e-06 0.0240024
-7.8e-06 0.0780078
-3e-06 0.030003
ITEM: ATOMS id type x y z radius 
291 1 0.0040448 0.00202948 0.0216125 0.0015 
368 1 0.000500805 0.00150134 0.0205 0.0005 
784 1 0.00598956 0.00385087 0.02075 0.00075 
32 1 0.00565807 0.000768054 0.0205 0.0005 
241 1 0.00556641 0.00269824 0.0205 0.0005 
815 1 0.00276318 0.000615195 0.0205187 0.0005 
448 1 0.00482192 0.0042194 0.0204998 0.0005 
300 1 0.000500073 0.000500579 0.0205 0.0005 
442 1 0.00155666 0.00246934 0.021 0.001 
816 1 0.00624163 0.00507955 0.0205 0.0005 
710 1 0.00469475 0.000499948 0.0205 0.0005 
527 1 0.00113241 0.00590455 0.0210569 0.0005 
100 1 0.00601947 0.00247581 0.0215248 0.0005 
153 1 0.00587033 0.00174518 0.0205 0.0005 
722 1 0.00285093 0.00610317 0.0205 0.0005 
864 1 0.00599155 0.00142605 0.0214399 0.0005 
503 1 0.000507902 0.00359913 0.0206761 0.0005 
561 1 0.00698641 0.00226082 0.02075 0.00075 
501 1 0.00674273 0.000766165 0.0214562 0.0005 
64 1 0.00710329 0.00687009 0.021 0.001 
954 1 0.00662137 0.000499946 0.0205 0.0005 
380 1 0.00569993 0.00704259 0.0204996 0.0005 
587 1 0.000583656 0.00178735 0.0219378 0.0005 
370 1 0.00776739 0.000931813 0.0207498 0.00075 
28 1 0.00144813 0.000751172 0.0213219 0.00075 
220 1 0.00772074 0.00074989 0.0222378 0.00075 
2736 1 0.00397001 0.00369606 0.0205 0.0005 
998 1 0.00178745 0.00672761 0.0217324 0.00075 
842 1 0.00745446 0.00673395 0.0224803 0.0005 
307 1 0.0082144 0.00227438 0.0205 0.0005 
870 1 0.00838841 0.00626909 0.0205 0.0005 
324 1 0.00840291 0.00426844 0.0219998 0.002 
1195 1 0.00898815 0.00162459 0.0214834 0.0005 
121 1 0.00938179 0.00638443 0.0205 0.0005 
228 1 0.0099817 0.0055841 0.0205 0.0005 
490 1 0.0103644 0.00465786 0.0204999 0.0005 
199 1 0.0119059 0.0034191 0.0204999 0.0005 
395 1 0.0109024 0.00282191 0.0204999 0.0005 
474 1 0.0140896 0.00195271 0.0207497 0.00075 
282 1 0.0106508 0.00137222 0.0205 0.0005 
590 1 0.00992633 0.000526241 0.0205 0.0005 
176 1 0.0137812 0.000500578 0.0205 0.0005 
289 1 0.0112146 0.000506478 0.0205 0.0005 
362 1 0.00892667 0.000499998 0.0205 0.0005 
783 1 0.0112286 0.00415477 0.0205 0.0005 
51 1 0.0134042 0.00327263 0.0205 0.0005 
233 1 0.00981069 0.00226354 0.02075 0.00075 
217 1 0.011106 0.00532841 0.0204998 0.0005 
549 1 0.0107167 0.00509322 0.0213904 0.0005 
126 1 0.0127868 0.00491133 0.0214998 0.0015 
676 1 0.0105217 0.000750028 0.0215764 0.00075 
209 1 0.0139899 0.00615692 0.0204997 0.0005 
730 1 0.00885333 0.00149961 0.0205 0.0005 
764 1 0.0108681 0.00687177 0.0212892 0.00125 
311 1 0.0145729 0.0067451 0.0217502 0.001 
763 1 0.0103542 0.00365805 0.0205 0.0005 
66 1 0.0145652 0.00505712 0.0205 0.0005 
61 1 0.0149722 0.00597054 0.0204999 0.0005 
108 1 0.0151693 0.00356121 0.0212497 0.00125 
89 1 0.00869137 0.00050035 0.0214727 0.0005 
155 1 0.0121555 0.00185787 0.0212499 0.00125 
178 1 0.0149879 0.00074976 0.0207496 0.00075 
364 1 0.011035 0.00349591 0.0215454 0.00075 
895 1 0.0115804 0.000499999 0.0221921 0.0005 
598 1 0.0129245 0.000499773 0.022041 0.0005 
581 1 0.0126723 0.0070581 0.0221635 0.00075 
171 1 0.0131748 0.00707067 0.0207499 0.00075 
161 1 0.0232501 0.00074992 0.0207499 0.00075 
159 1 0.0228138 0.00339437 0.0205 0.0005 
204 1 0.0235 0.00531349 0.0205 0.0005 
219 1 0.0215156 0.000999948 0.0209998 0.001 
333 1 0.02325 0.00432063 0.0212171 0.00075 
142 1 0.0232501 0.00224984 0.0207499 0.00075 
200 1 0.0203219 0.00271147 0.02075 0.00075 
340 1 0.0215894 0.00446148 0.02075 0.00075 
452 1 0.0235003 0.00631499 0.0204995 0.0005 
518 1 0.0197361 0.000750409 0.02075 0.00075 
185 1 0.0165291 0.00569564 0.0212498 0.00125 
31 1 0.0169719 0.00149981 0.0214998 0.0015 
123 1 0.0228974 0.000999956 0.0224455 0.001 
273 1 0.021858 0.00293355 0.0215601 0.001 
113 1 0.0168587 0.00331678 0.0205 0.0005 
544 1 0.0188149 0.00425455 0.0209999 0.001 
577 1 0.0232501 0.00582956 0.0216232 0.00075 
652 1 0.0182628 0.00556122 0.0214875 0.0005 
290 1 0.0188318 0.00252227 0.02075 0.00075 
281 1 0.0204327 0.00394828 0.0215925 0.00075 
57 1 0.0203122 0.00619307 0.0214998 0.0015 
143 1 0.0225057 0.00578139 0.0205 0.0005 
853 1 0.0181064 0.00554302 0.0205 0.0005 
106 1 0.0221144 0.00532581 0.0214846 0.0005 
1012 1 0.0181581 0.00679997 0.0217314 0.00075 
109 1 0.0185648 0.00643193 0.0205 0.0005 
256 1 0.00121543 0.00745829 0.0205 0.0005 
75 1 0.00274478 0.0073345 0.02075 0.00075 
887 1 0.00735682 0.00775556 0.0222121 0.0005 
1359 1 0.0038704 0.00791132 0.0205 0.0005 
588 1 0.00483036 0.00762645 0.0205 0.0005 
360 1 0.00646318 0.0124361 0.0205 0.0005 
154 1 0.00521458 0.00880214 0.0207498 0.00075 
13 1 0.000500016 0.00823538 0.0205 0.0005 
879 1 0.00610167 0.00795806 0.0204999 0.0005 
137 1 0.00108168 0.00910194 0.0205 0.0005 
44 1 0.00538228 0.010434 0.02075 0.00075 
1166 1 0.00617481 0.00819407 0.0217404 0.00075 
1234 1 0.00592393 0.00948796 0.0215171 0.0005 
323 1 0.00296651 0.0097742 0.0219998 0.002 
820 1 0.000862598 0.0100901 0.0205 0.0005 
1067 1 0.00795132 0.0127651 0.0205002 0.0005 
713 1 0.00251979 0.0119146 0.0205 0.0005 
881 1 0.000500217 0.0110603 0.0205 0.0005 
943 1 0.00410089 0.0117354 0.0205 0.0005 
673 1 0.00531975 0.0119461 0.0207499 0.00075 
174 1 0.0011565 0.0123226 0.0209998 0.001 
447 1 0.0063676 0.00930119 0.0205 0.0005 
737 1 0.00573546 0.0131273 0.0205009 0.0005 
646 1 0.00155043 0.0140242 0.0205 0.0005 
508 1 0.000499962 0.0135752 0.0204999 0.0005 
872 1 0.00751248 0.0116216 0.0207499 0.00075 
439 1 0.00702487 0.0140479 0.0212499 0.00125 
891 1 0.00703014 0.00832866 0.0204999 0.0005 
1190 1 0.00545516 0.00972924 0.0223729 0.0005 
479 1 0.000524951 0.0134484 0.0219193 0.0005 
911 1 0.00502324 0.011249 0.0217446 0.0005 
296 1 0.00367194 0.0139582 0.0222497 0.00225 
35 1 0.0079079 0.00963638 0.0217322 0.0015 
2621 1 0.00634004 0.0112572 0.0205011 0.0005 
1032 1 0.00600638 0.0104331 0.021833 0.0005 
1085 1 0.000749961 0.0113523 0.0223982 0.00075 
742 1 0.000499874 0.0101408 0.0221746 0.0005 
274 1 0.00797669 0.00800683 0.0204999 0.0005 
1070 1 0.00849333 0.00728993 0.0219765 0.00075 
636 1 0.0121576 0.00775219 0.0204996 0.0005 
275 1 0.0145597 0.00834459 0.02075 0.00075 
46 1 0.0091848 0.00780712 0.0207499 0.00075 
556 1 0.0139566 0.00971798 0.02075 0.00075 
287 1 0.0109137 0.0108981 0.0205 0.0005 
865 1 0.013353 0.0126087 0.0204999 0.0005 
756 1 0.0118536 0.00945055 0.0215104 0.0015 
318 1 0.0137066 0.00824954 0.0219804 0.00075 
686 1 0.00965386 0.0089471 0.0205 0.0005 
10 1 0.0155356 0.0090862 0.0205 0.0005 
569 1 0.012578 0.0110178 0.0205 0.0005 
252 1 0.00868042 0.0110092 0.0205 0.0005 
188 1 0.0149783 0.0132009 0.0215035 0.0015 
772 1 0.0125286 0.0120314 0.0205026 0.0005 
709 1 0.00985917 0.0101744 0.0207499 0.00075 
1061 1 0.0116074 0.0116196 0.0205 0.0005 
1118 1 0.00985016 0.0100997 0.0219977 0.0005 
59 1 0.0118694 0.0127846 0.0205 0.0005 
974 1 0.011445 0.0138277 0.0205 0.0005 
734 1 0.0127423 0.0136705 0.02075 0.00075 
968 1 0.0124576 0.0116368 0.0216868 0.00075 
62 1 0.00990618 0.0125985 0.0220507 0.002 
1238 1 0.0104927 0.00838838 0.0205 0.0005 
1028 1 0.0137656 0.0113395 0.02075 0.00075 
1653 1 0.0147568 0.00937496 0.021652 0.0005 
80 1 0.0154673 0.0105503 0.0210453 0.001 
810 1 0.00970914 0.00832042 0.0220582 0.00075 
1080 1 0.0138284 0.0114241 0.0222672 0.00075 
192 1 0.0157965 0.00749576 0.0207497 0.00075 
1056 1 0.0158451 0.0115074 0.0221375 0.0005 
611 1 0.00862939 0.0140998 0.0205089 0.0005 
714 1 0.0160374 0.0118292 0.0205 0.0005 
1922 1 0.0165101 0.00854033 0.0205 0.0005 
6 1 0.0224934 0.00730743 0.0209999 0.001 
190 1 0.0172959 0.00753665 0.0207498 0.00075 
1846 1 0.0164301 0.00953726 0.0205 0.0005 
342 1 0.0170201 0.0126147 0.0207517 0.00075 
319 1 0.021037 0.00776643 0.0205 0.0005 
293 1 0.0187691 0.0111358 0.0217591 0.00175 
735 1 0.020777 0.0101143 0.0216316 0.0005 
308 1 0.0201553 0.00887227 0.0209998 0.001 
49 1 0.0170609 0.0103341 0.0205 0.0005 
146 1 0.0194084 0.00767109 0.0205 0.0005 
578 1 0.023 0.00924205 0.0209998 0.001 
90 1 0.0185783 0.00817078 0.0212898 0.00075 
71 1 0.0215781 0.0086955 0.0205 0.0005 
659 1 0.0175988 0.00917046 0.02075 0.00075 
967 1 0.0169137 0.0113282 0.0205001 0.0005 
130 1 0.0213393 0.0120277 0.0205 0.0005 
41 1 0.02164 0.0103146 0.0207499 0.00075 
231 1 0.0235001 0.0105649 0.0204999 0.0005 
279 1 0.0235 0.00807701 0.0218027 0.0005 
693 1 0.0212851 0.00803115 0.0215157 0.0005 
725 1 0.0226379 0.0114345 0.0207504 0.00075 
697 1 0.0204164 0.0102622 0.0205 0.0005 
330 1 0.0223761 0.0129114 0.0207499 0.00075 
78 1 0.0227628 0.0140736 0.0205 0.0005 
800 1 0.0206275 0.0113252 0.0205 0.0005 
538 1 0.0234994 0.0123409 0.0205 0.0005 
1236 1 0.0177893 0.0132033 0.021985 0.0005 
812 1 0.0215931 0.0122283 0.0214462 0.0005 
944 1 0.0235001 0.0136817 0.0214586 0.0005 
794 1 0.0169007 0.0127295 0.021998 0.0005 
592 1 0.0181159 0.013178 0.0205 0.0005 
910 1 0.0215645 0.00921278 0.0220015 0.00075 
523 1 0.0187368 0.013981 0.0205 0.0005 
956 1 0.0190956 0.012972 0.0205 0.0005 
350 1 0.0205246 0.0139365 0.0215136 0.0015 
639 1 0.022531 0.0139278 0.0214623 0.0005 
1899 1 0.0164806 0.0116076 0.0213687 0.0005 
1138 1 0.0227146 0.0106347 0.0220203 0.00075 
272 1 0.0235001 0.0133978 0.0204999 0.0005 
770 1 0.0235 0.0115341 0.0216505 0.0005 
1517 1 0.0211841 0.0113226 0.0213319 0.0005 
1498 1 0.0185666 0.0134741 0.021345 0.0005 
1575 1 0.022028 0.00806837 0.0222058 0.0005 
2494 1 0.0187236 0.0133151 0.0223281 0.0005 
196 1 0.000511595 0.0142105 0.021272 0.0005 
782 1 0.000500003 0.0148905 0.022005 0.0005 
70 1 0.000502465 0.0148461 0.0205 0.0005 
888 1 0.00336179 0.0161646 0.0205 0.0005 
550 1 0.00331234 0.0172445 0.0205222 0.0005 
1 1 0.00756147 0.0159286 0.0207499 0.00075 
529 1 0.00125004 0.01628 0.0212497 0.00125 
269 1 0.00736865 0.0178626 0.0212499 0.00125 
19 1 0.00493752 0.0170671 0.0212499 0.00125 
1077 1 0.00641442 0.0165004 0.0205003 0.0005 
1004 1 0.00634224 0.0196027 0.02075 0.00075 
688 1 0.000500023 0.019369 0.0205 0.0005 
896 1 0.00756476 0.0195038 0.0205083 0.0005 
1660 1 0.00578757 0.0184708 0.0205 0.0005 
972 1 0.00650656 0.0159634 0.0218155 0.00075 
223 1 0.00383625 0.0198124 0.0217498 0.00175 
700 1 0.00579786 0.0210004 0.02075 0.00075 
678 1 0.00121973 0.0209346 0.0209999 0.001 
315 1 0.0029698 0.0171857 0.0217603 0.00075 
576 1 0.000850256 0.0181939 0.02075 0.00075 
1094 1 0.006221 0.0192057 0.0221918 0.00075 
1884 1 0.000500071 0.0191496 0.0214756 0.0005 
430 1 0.0021932 0.0178788 0.0205 0.0005 
1293 1 0.00260562 0.0212283 0.0205 0.0005 
1829 1 0.00640868 0.0170451 0.0224634 0.0005 
1388 1 0.000750715 0.0201045 0.0224673 0.00075 
600 1 0.00811265 0.0209768 0.0213402 0.00125 
110 1 0.0136854 0.0144946 0.0205 0.0005 
2226 1 0.0133993 0.0144286 0.0215189 0.0005 
43 1 0.015645 0.014811 0.0205 0.0005 
877 1 0.00925484 0.019653 0.0205041 0.0005 
1859 1 0.00880873 0.0189901 0.021144 0.0005 
1570 1 0.00904052 0.0182351 0.0205 0.0005 
695 1 0.0087186 0.0150824 0.0215354 0.00075 
54 1 0.00930947 0.0167359 0.0216834 0.001 
786 1 0.00981569 0.0152378 0.0221646 0.0005 
180 1 0.0113074 0.019356 0.0223988 0.002 
221 1 0.0117475 0.015562 0.0217454 0.0015 
118 1 0.0144925 0.0159228 0.0212499 0.00125 
717 1 0.0130948 0.0185047 0.0205 0.0005 
1232 1 0.0101284 0.0149095 0.0205 0.0005 
934 1 0.0141827 0.0190706 0.02075 0.00075 
1310 1 0.0138335 0.0176947 0.0205 0.0005 
1212 1 0.0152097 0.0184 0.0204998 0.0005 
624 1 0.0130452 0.0167902 0.0205 0.0005 
1035 1 0.0121466 0.0173814 0.0205 0.0005 
1592 1 0.0130815 0.0196516 0.0205 0.0005 
1697 1 0.00973636 0.0206661 0.0205 0.0005 
2033 1 0.0135769 0.019991 0.0213445 0.0005 
1264 1 0.0117287 0.0210772 0.0205 0.0005 
1164 1 0.0129389 0.0208879 0.02075 0.00075 
982 1 0.0150386 0.0203104 0.0205 0.0005 
1448 1 0.0129699 0.0176504 0.0210044 0.0005 
2386 1 0.014315 0.0178751 0.0216462 0.00075 
2420 1 0.0140381 0.0202953 0.0205 0.0005 
2431 1 0.0150561 0.0174024 0.0205 0.0005 
2511 1 0.0159817 0.0166695 0.0205 0.0005 
2287 1 0.0153573 0.0190233 0.0212675 0.0005 
2500 1 0.0154668 0.0199158 0.0218245 0.0005 
2378 1 0.0145872 0.0200824 0.0213626 0.0005 
2447 1 0.0140558 0.0193002 0.0222738 0.00075 
2086 1 0.0137325 0.0170359 0.0223667 0.0005 
1311 1 0.0157136 0.0195726 0.0205005 0.0005 
2645 1 0.015746 0.0172474 0.0213645 0.0005 
1376 1 0.0090463 0.0182777 0.0218271 0.0005 
2392 1 0.0128664 0.0172503 0.021915 0.0005 
1757 1 0.014995 0.0208944 0.0217803 0.0005 
2594 1 0.0140236 0.0210858 0.0214692 0.0005 
2618 1 0.0151353 0.01718 0.0223415 0.0005 
1755 1 0.0158264 0.0211405 0.0223169 0.0005 
2897 1 0.010424 0.0173554 0.0208906 0.0005 
1338 1 0.0160124 0.0176949 0.0205026 0.0005 
2117 1 0.0161315 0.0152074 0.0213806 0.0005 
189 1 0.0161429 0.0156824 0.0205001 0.0005 
2460 1 0.0161691 0.0186824 0.0205 0.0005 
139 1 0.0172852 0.0143268 0.0210006 0.001 
1193 1 0.0186702 0.0146826 0.021453 0.0005 
345 1 0.018982 0.014952 0.0205 0.0005 
741 1 0.0178071 0.0155567 0.0216834 0.0005 
450 1 0.0181382 0.0154916 0.0205 0.0005 
947 1 0.0178049 0.0173024 0.0205 0.0005 
591 1 0.0222393 0.0151813 0.02075 0.00075 
465 1 0.0187119 0.016754 0.0205001 0.0005 
719 1 0.0189887 0.0158874 0.0213578 0.00075 
628 1 0.0235 0.0165422 0.0205 0.0005 
42 1 0.022313 0.0168453 0.0207498 0.00075 
747 1 0.0210715 0.0155713 0.0205 0.0005 
813 1 0.0201242 0.0164725 0.0205 0.0005 
787 1 0.018697 0.0177549 0.0205 0.0005 
492 1 0.0195996 0.0173239 0.0205 0.0005 
238 1 0.0234998 0.0175431 0.0205 0.0005 
1216 1 0.0198863 0.017032 0.0217395 0.00075 
1230 1 0.0172045 0.0162561 0.0208286 0.00075 
566 1 0.0207611 0.017743 0.02075 0.00075 
1333 1 0.0211193 0.0165712 0.0205 0.0005 
1091 1 0.0195726 0.0183235 0.0205 0.0005 
1398 1 0.021017 0.0198531 0.0205 0.0005 
1189 1 0.0234999 0.0145582 0.0209748 0.0005 
1427 1 0.0198144 0.0155074 0.0204999 0.0005 
898 1 0.0188779 0.0177452 0.0214998 0.0005 
1452 1 0.0198389 0.0195188 0.0207504 0.00075 
1488 1 0.0183742 0.0189366 0.02075 0.00075 
1124 1 0.0235 0.0154383 0.0205 0.0005 
1020 1 0.0225001 0.0189582 0.0214999 0.0015 
1401 1 0.0214352 0.0162623 0.0221468 0.001 
1298 1 0.0202379 0.015906 0.0213162 0.0005 
1170 1 0.0232223 0.0160005 0.0215919 0.00075 
1831 1 0.017705 0.0179948 0.0212915 0.0005 
957 1 0.0234899 0.0206017 0.0205 0.0005 
1320 1 0.0189483 0.0207258 0.02075 0.00075 
1598 1 0.0199991 0.0205812 0.0214149 0.0005 
1437 1 0.0234986 0.0206914 0.021498 0.0005 
1184 1 0.023495 0.0172117 0.0214434 0.0005 
1692 1 0.0193411 0.0186321 0.0214837 0.0005 
1828 1 0.0181876 0.016897 0.0214092 0.0005 
1202 1 0.0207225 0.0198884 0.0215536 0.0005 
1460 1 0.020881 0.0208448 0.0218069 0.0005 
1984 1 0.0187447 0.0198038 0.0215705 0.0005 
1738 1 0.017151 0.0188748 0.0205 0.0005 
1648 1 0.0170326 0.0204497 0.0212538 0.00125 
2467 1 0.0169937 0.0178872 0.0205 0.0005 
1963 1 0.0185975 0.0206559 0.0220731 0.0005 
1434 1 0.0232356 0.014638 0.022219 0.00075 
1796 1 0.0195997 0.0194822 0.0219776 0.0005 
1105 1 0.0204068 0.0206454 0.0205 0.0005 
1865 1 0.016816 0.0184467 0.0214183 0.0005 
1767 1 0.0210241 0.0176944 0.0219735 0.0005 
1929 1 0.0202269 0.0182595 0.0217603 0.0005 
2072 1 0.0234966 0.0174657 0.0224106 0.0005 
2099 1 0.0198768 0.0158336 0.0222461 0.0005 
838 1 0.0163975 0.0162859 0.0223904 0.001 
1416 1 0.00366053 0.0216827 0.0205 0.0005 
1578 1 0.00497628 0.0217482 0.0214899 0.0005 
482 1 0.00049999 0.022152 0.0205 0.0005 
12 1 0.00198129 0.0224954 0.0207498 0.00075 
952 1 0.00594119 0.0243649 0.0205 0.0005 
1439 1 0.00763199 0.02301 0.0207497 0.00075 
831 1 0.00520664 0.0231466 0.0209992 0.001 
534 1 0.000749964 0.023352 0.02075 0.00075 
1423 1 0.00166337 0.027055 0.021679 0.0005 
1406 1 0.000540073 0.0258937 0.0205 0.0005 
483 1 0.000500143 0.0272009 0.0205 0.0005 
1483 1 0.00695655 0.0219878 0.0205 0.0005 
1512 1 0.00372793 0.0244405 0.0205 0.0005 
752 1 0.00578131 0.0257922 0.0205 0.0005 
1805 1 0.00325093 0.0233107 0.02075 0.00075 
1576 1 0.00058429 0.0245663 0.0205 0.0005 
1373 1 0.00712436 0.0256339 0.02075 0.00075 
1860 1 0.00467077 0.02149 0.0205011 0.0005 
1625 1 0.000501964 0.0223388 0.0214823 0.0005 
1455 1 0.00201162 0.0245387 0.0209999 0.001 
1942 1 0.00641705 0.0220483 0.0216266 0.00075 
1926 1 0.00050018 0.023751 0.0219079 0.0005 
1520 1 0.00724228 0.0270237 0.0210963 0.0005 
1143 1 0.00360697 0.0280137 0.0207935 0.00075 
2021 1 0.00790796 0.0265752 0.0205 0.0005 
980 1 0.00646478 0.0272235 0.0205 0.0005 
1825 1 0.000500787 0.0248325 0.0214603 0.0005 
2481 1 0.00746684 0.028199 0.0205 0.0005 
2583 1 0.00472205 0.0245344 0.0206187 0.0005 
1893 1 0.00113484 0.0244605 0.0222145 0.0005 
2706 1 0.000571273 0.0252645 0.0224042 0.0005 
348 1 0.00271615 0.027187 0.0205 0.0005 
775 1 0.00584982 0.0249732 0.022143 0.00125 
1662 1 0.00384504 0.0223233 0.0217265 0.00075 
2168 1 0.00741637 0.0262152 0.0221644 0.00075 
1702 1 0.00050355 0.0280845 0.02195 0.0005 
2244 1 0.00210961 0.0278139 0.021125 0.0005 
2852 1 0.00502697 0.0267051 0.0213818 0.0005 
2884 1 0.00317916 0.0263384 0.0214419 0.0005 
2920 1 0.00584092 0.0272672 0.0222758 0.0005 
1144 1 0.00980841 0.0213533 0.0216253 0.0005 
1577 1 0.0141415 0.0213018 0.0205 0.0005 
1650 1 0.00813995 0.0226765 0.0218418 0.0005 
946 1 0.00832578 0.0244338 0.0221963 0.00125 
904 1 0.00853749 0.0240005 0.0205 0.0005 
1081 1 0.00874993 0.0260278 0.0205 0.0005 
1343 1 0.0106483 0.0216546 0.02075 0.00075 
1394 1 0.00937036 0.0228385 0.0209997 0.001 
1698 1 0.00958652 0.0251387 0.0207681 0.00075 
1342 1 0.0106583 0.0245634 0.021651 0.00075 
978 1 0.0102171 0.0261984 0.0205 0.0005 
1208 1 0.0101266 0.0240339 0.0205 0.0005 
1350 1 0.013252 0.023607 0.0205 0.0005 
919 1 0.00929534 0.0278143 0.0217658 0.00175 
780 1 0.0127018 0.0255232 0.0205 0.0005 
353 1 0.0149012 0.0236753 0.0205 0.0005 
1294 1 0.012613 0.0228378 0.0205 0.0005 
1180 1 0.0119612 0.0220695 0.0205 0.0005 
1462 1 0.0111311 0.0257343 0.0213691 0.0005 
1467 1 0.0120266 0.0239698 0.0205 0.0005 
1552 1 0.0130657 0.0221965 0.0214727 0.00075 
1602 1 0.011322 0.0261999 0.0205 0.0005 
1621 1 0.0121857 0.02514 0.0216811 0.00075 
861 1 0.0140877 0.0245932 0.0207499 0.00075 
1643 1 0.0117624 0.0251239 0.0205 0.0005 
1539 1 0.0128643 0.0245365 0.0205 0.0005 
1330 1 0.0137698 0.0235246 0.0213709 0.0005 
1192 1 0.0146541 0.0260524 0.0205 0.0005 
1614 1 0.0111046 0.0231006 0.0207651 0.00075 
1693 1 0.0156009 0.0227075 0.0205 0.0005 
1618 1 0.0111014 0.024357 0.0205 0.0005 
1221 1 0.0143418 0.0225854 0.02075 0.00075 
1915 1 0.0136809 0.0257884 0.0205 0.0005 
1869 1 0.0107886 0.0253524 0.0205 0.0005 
1655 1 0.0115604 0.0224081 0.0223407 0.001 
2193 1 0.0110502 0.0271622 0.0205 0.0005 
2263 1 0.0139595 0.0256394 0.0214577 0.0005 
2270 1 0.0126136 0.0270859 0.0212828 0.00125 
1753 1 0.0153647 0.0237261 0.021427 0.0005 
862 1 0.0143877 0.0271656 0.0205 0.0005 
1775 1 0.0143528 0.0219607 0.021833 0.0005 
2004 1 0.0142989 0.026566 0.0212954 0.0005 
1958 1 0.0143038 0.0275732 0.0214093 0.0005 
2243 1 0.0156195 0.0268388 0.02075 0.00075 
1017 1 0.0153718 0.0214937 0.02075 0.00075 
2348 1 0.0147432 0.0229636 0.0218995 0.0005 
1955 1 0.0150505 0.0261596 0.0218151 0.0005 
144 1 0.0157487 0.0251117 0.0209999 0.001 
1563 1 0.0159095 0.0236772 0.0205 0.0005 
2603 1 0.012337 0.0232476 0.0213694 0.0005 
2121 1 0.0101831 0.0257483 0.0216868 0.0005 
2261 1 0.0152751 0.0276533 0.0216342 0.0005 
2026 1 0.0112096 0.026423 0.0221084 0.0005 
2662 1 0.0137513 0.0229261 0.0222243 0.0005 
2201 1 0.0117552 0.0239683 0.0217476 0.0005 
2403 1 0.0118617 0.0282296 0.0224075 0.0005 
1935 1 0.011292 0.0281486 0.0205 0.0005 
2010 1 0.0129432 0.023577 0.0220934 0.0005 
1931 1 0.0110672 0.025473 0.0224126 0.0005 
2419 1 0.0152358 0.0269809 0.0223835 0.0005 
1768 1 0.0159772 0.02801 0.0205 0.0005 
1794 1 0.0162032 0.0225555 0.0218687 0.001 
1219 1 0.0220316 0.0213691 0.0209999 0.001 
152 1 0.02096 0.0236116 0.0205 0.0005 
1292 1 0.0170965 0.0239841 0.02075 0.00075 
512 1 0.0191391 0.0266379 0.0204998 0.0005 
1288 1 0.016512 0.0219408 0.0205 0.0005 
1048 1 0.0180973 0.0220668 0.02075 0.00075 
1415 1 0.0215604 0.0227103 0.0205 0.0005 
1087 1 0.0234987 0.0253835 0.0205 0.0005 
1176 1 0.0182204 0.0258287 0.0207521 0.00075 
1269 1 0.023248 0.0226063 0.02075 0.00075 
1507 1 0.0234999 0.0247984 0.0217742 0.0005 
1574 1 0.0235002 0.026402 0.0204997 0.0005 
1472 1 0.0232502 0.0241163 0.0207504 0.00075 
1590 1 0.022328 0.0249218 0.0204998 0.0005 
1634 1 0.0185923 0.0236574 0.0207499 0.00075 
908 1 0.0221867 0.0234914 0.0205 0.0005 
1646 1 0.017087 0.022759 0.0205 0.0005 
1927 1 0.0168016 0.0261673 0.0205 0.0005 
1897 1 0.0178625 0.0231062 0.0219386 0.00075 
1370 1 0.0231379 0.0276334 0.02075 0.00075 
1243 1 0.0200639 0.0249166 0.0212498 0.00125 
1978 1 0.0171642 0.0252069 0.0205001 0.0005 
1881 1 0.0168071 0.0245296 0.0218893 0.0005 
1514 1 0.0200141 0.0223427 0.0212498 0.00125 
1925 1 0.0216348 0.0242764 0.0208202 0.0005 
1527 1 0.0180335 0.0246768 0.0216977 0.00075 
1106 1 0.0175822 0.0276858 0.0212499 0.00125 
1323 1 0.0191506 0.0279706 0.0205 0.0005 
1090 1 0.0223429 0.0261145 0.02178 0.00125 
1837 1 0.0161055 0.0274796 0.0221659 0.0005 
1015 1 0.0218196 0.0277729 0.0205 0.0005 
1974 1 0.0234998 0.0281203 0.0218431 0.0005 
1267 1 0.0204697 0.0271161 0.0209998 0.001 
2065 1 0.0189594 0.0237052 0.0219437 0.0005 
2303 1 0.0184376 0.0218288 0.0224747 0.00075 
1910 1 0.0191955 0.0272607 0.0217781 0.0005 
2198 1 0.0234999 0.0272808 0.0223871 0.0005 
2162 1 0.021303 0.0216183 0.0222872 0.0005 
1285 1 0.000754456 0.0284007 0.02075 0.00075 
1480 1 0.00633167 0.02916 0.02075 0.00075 
1103 1 0.00515532 0.0295007 0.0205 0.0005 
138 1 0.00755521 0.0292126 0.0205 0.0005 
162 1 0.000598363 0.0324207 0.0205 0.0005 
259 1 0.00361737 0.0318424 0.0205 0.0005 
522 1 0.00141864 0.0335769 0.0207499 0.00075 
337 1 0.00323708 0.030535 0.0207487 0.00075 
638 1 0.00463209 0.0332117 0.0207499 0.00075 
506 1 0.000591579 0.0349566 0.0213619 0.0005 
1084 1 0.00131031 0.0305191 0.02075 0.00075 
1355 1 0.0026338 0.0337298 0.0205 0.0005 
1451 1 0.00426619 0.0290432 0.0205108 0.0005 
412 1 0.0022022 0.0320042 0.0210016 0.001 
1607 1 0.00157837 0.0293213 0.020502 0.0005 
1529 1 0.00562023 0.0352966 0.02075 0.00075 
1290 1 0.0005008 0.0295993 0.0205 0.0005 
1449 1 0.00249121 0.0284945 0.0204999 0.0005 
1761 1 0.0063167 0.0342835 0.0205 0.0005 
1760 1 0.0033297 0.0329497 0.0205016 0.0005 
1611 1 0.00511589 0.034259 0.0212312 0.0005 
2278 1 0.00260185 0.029488 0.0204999 0.0005 
2306 1 0.00561168 0.0320124 0.0207499 0.00075 
2343 1 0.00581808 0.0302716 0.0204996 0.0005 
2387 1 0.00697654 0.0330198 0.0207499 0.00075 
2407 1 0.00436715 0.0311807 0.020502 0.0005 
2421 1 0.00583831 0.0335076 0.0209199 0.0005 
2493 1 0.00783288 0.0345909 0.0216014 0.0005 
672 1 0.00711774 0.0352101 0.02075 0.00075 
2537 1 0.00442361 0.0301823 0.0205 0.0005 
1872 1 0.00724023 0.0309617 0.0212498 0.00125 
1792 1 0.0044335 0.0317063 0.0216387 0.00075 
2484 1 0.00569582 0.0314908 0.0218827 0.0005 
2573 1 0.00512961 0.0303152 0.0215414 0.00075 
2427 1 0.00517806 0.0286321 0.020998 0.0005 
1993 1 0.00169829 0.0290707 0.0217299 0.00075 
2455 1 0.00775938 0.033028 0.0217481 0.0005 
2622 1 0.00633667 0.0323989 0.0216949 0.0005 
1291 1 0.000749981 0.0335986 0.0220924 0.00075 
2548 1 0.0032685 0.0312697 0.0217601 0.0005 
2570 1 0.00534096 0.0327909 0.0216895 0.0005 
897 1 0.000505967 0.0344376 0.0205 0.0005 
1168 1 0.00352128 0.0329354 0.0217436 0.00075 
2337 1 0.00797772 0.0337576 0.020951 0.0005 
2449 1 0.00725613 0.0287161 0.0214647 0.0005 
1136 1 0.000752637 0.0319153 0.0219881 0.00075 
2381 1 0.00415703 0.0294236 0.0214629 0.0005 
2530 1 0.00391141 0.0304284 0.0217941 0.0005 
2772 1 0.00801277 0.0298664 0.0223766 0.0005 
2154 1 0.000765302 0.0304639 0.0223677 0.00075 
2393 1 0.0114561 0.028395 0.0215061 0.0005 
2456 1 0.00829117 0.0322742 0.0221355 0.0005 
1987 1 0.014706 0.0285131 0.021857 0.0005 
1870 1 0.0141309 0.0286227 0.0207526 0.00075 
2301 1 0.0128577 0.028921 0.0220584 0.00075 
505 1 0.00851182 0.0295037 0.0205 0.0005 
886 1 0.00874793 0.0304793 0.0205005 0.0005 
1249 1 0.0132863 0.0330795 0.02075 0.00075 
1154 1 0.0110727 0.0324417 0.0204999 0.0005 
609 1 0.012205 0.0325044 0.0205 0.0005 
1134 1 0.00839793 0.0325411 0.02075 0.00075 
1340 1 0.0115992 0.0332999 0.0205 0.0005 
1678 1 0.0124132 0.0339414 0.0204999 0.0005 
1703 1 0.0103611 0.0316095 0.0205 0.0005 
1095 1 0.0133539 0.0343024 0.0205 0.0005 
1815 1 0.00935911 0.0316191 0.0205 0.0005 
1348 1 0.0128096 0.0302924 0.0205 0.0005 
1594 1 0.0136066 0.0352928 0.0211516 0.0005 
2043 1 0.0106888 0.0290463 0.0205 0.0005 
1867 1 0.00927338 0.0333427 0.0219798 0.00075 
1793 1 0.0140196 0.0298559 0.0217756 0.00075 
2242 1 0.0117103 0.0311806 0.0210027 0.001 
2245 1 0.0100727 0.0305954 0.021245 0.00075 
2266 1 0.0129067 0.0286232 0.0204999 0.0005 
1954 1 0.010898 0.0300242 0.0205 0.0005 
1762 1 0.00897425 0.0311876 0.0213158 0.0005 
640 1 0.00988465 0.0327387 0.0207499 0.00075 
2323 1 0.0128233 0.0351499 0.0205 0.0005 
2362 1 0.0138663 0.029989 0.0204999 0.0005 
2347 1 0.011997 0.0347541 0.0209077 0.0005 
1361 1 0.0150665 0.0302403 0.02075 0.00075 
2202 1 0.0136988 0.0313928 0.0209998 0.001 
2451 1 0.0118867 0.0293006 0.0207507 0.00075 
1083 1 0.0149237 0.0341134 0.0212499 0.00125 
835 1 0.0085024 0.0344798 0.0205 0.0005 
2305 1 0.0149711 0.0315422 0.0217797 0.0005 
2225 1 0.00965954 0.0296409 0.0205 0.0005 
2408 1 0.0130421 0.0345143 0.0214262 0.0005 
2304 1 0.0105563 0.034335 0.021 0.001 
2444 1 0.0126192 0.0354247 0.0214396 0.0005 
2574 1 0.013145 0.0294748 0.020968 0.0005 
698 1 0.0152311 0.0322011 0.0207499 0.00075 
2317 1 0.0111936 0.0297428 0.0222954 0.001 
2404 1 0.0122341 0.0336009 0.0217007 0.00075 
2390 1 0.00916565 0.0320977 0.0216833 0.0005 
2376 1 0.0131757 0.0350702 0.0222466 0.0005 
2252 1 0.0125286 0.0323619 0.0214386 0.0005 
2577 1 0.0115286 0.0326231 0.0213712 0.0005 
2505 1 0.0125274 0.0300151 0.0215517 0.0005 
2439 1 0.0155943 0.0326158 0.0218718 0.0005 
2247 1 0.0119739 0.0348095 0.0219059 0.0005 
1786 1 0.0153442 0.0287844 0.0205 0.0005 
2469 1 0.00938519 0.0351796 0.0205 0.0005 
2412 1 0.0127521 0.0308613 0.0220352 0.0005 
2345 1 0.0105161 0.0320815 0.0223361 0.001 
1854 1 0.0159226 0.0287245 0.0216605 0.00075 
2297 1 0.0135641 0.0327533 0.0224595 0.001 
2379 1 0.0120758 0.0320482 0.0222751 0.0005 
2453 1 0.0136916 0.0342475 0.0224853 0.0005 
1409 1 0.0163311 0.0289451 0.0204999 0.0005 
1113 1 0.0173597 0.0296099 0.0207498 0.00075 
1044 1 0.0196632 0.0294781 0.0212498 0.00125 
557 1 0.0194906 0.0338009 0.0212499 0.00125 
304 1 0.0225196 0.0311186 0.0204999 0.0005 
1142 1 0.0222403 0.0345778 0.0205 0.0005 
1335 1 0.0172023 0.0330326 0.0204998 0.0005 
1414 1 0.0234983 0.0353572 0.0205 0.0005 
1016 1 0.0232354 0.0322091 0.02075 0.00075 
1531 1 0.0178426 0.0338599 0.0205 0.0005 
1329 1 0.0235 0.0288064 0.0205 0.0005 
1318 1 0.0182638 0.0328032 0.0205 0.0005 
1305 1 0.0180593 0.0309366 0.0207499 0.00075 
1258 1 0.0234204 0.0298075 0.0205 0.0005 
1695 1 0.0178184 0.0352898 0.0209997 0.001 
1224 1 0.0165224 0.031438 0.02075 0.00075 
878 1 0.0232378 0.0337253 0.02075 0.00075 
1213 1 0.0192379 0.03188 0.02075 0.00075 
1447 1 0.0161501 0.0304069 0.0217736 0.00075 
1603 1 0.0162925 0.0302346 0.0205 0.0005 
1403 1 0.0173912 0.0305852 0.0217838 0.0005 
1445 1 0.0235001 0.0309229 0.0205025 0.0005 
1362 1 0.02325 0.0304043 0.0216144 0.00075 
1442 1 0.0180037 0.0293009 0.0217753 0.0005 
1626 1 0.0175547 0.0320969 0.0204998 0.0005 
1534 1 0.0221048 0.0299664 0.0207501 0.00075 
1579 1 0.0214181 0.0336162 0.0207498 0.00075 
1468 1 0.017778 0.032254 0.0222281 0.00125 
1227 1 0.0169033 0.0338518 0.021395 0.00075 
1812 1 0.0234961 0.0291901 0.0214234 0.0005 
2044 1 0.0162022 0.0329824 0.0205 0.0005 
959 1 0.0192337 0.0353649 0.0205 0.0005 
2008 1 0.0187971 0.0283795 0.0223011 0.0005 
1699 1 0.0235 0.0329713 0.0217118 0.0005 
2478 1 0.0163742 0.0350421 0.0205644 0.0005 
2311 1 0.0189496 0.0310323 0.021622 0.0005 
809 1 0.0211827 0.0316828 0.021876 0.0015 
1420 1 0.0218115 0.0285354 0.0221164 0.00125 
2382 1 0.0182965 0.0302394 0.0220356 0.0005 
2235 1 0.0195046 0.0353287 0.022447 0.0005 
2418 1 0.0162101 0.0350691 0.0224466 0.00075 
2272 1 0.0234997 0.0288744 0.0225013 0.0005 
1073 1 0.00710685 0.0373116 0.02075 0.00075 
249 1 0.00318832 0.0356533 0.0219998 0.002 
535 1 0.000678288 0.0354561 0.0205 0.0005 
844 1 0.0051662 0.0368178 0.0205 0.0005 
366 1 0.00262658 0.0376672 0.0205 0.0005 
680 1 0.00439825 0.0377831 0.0207499 0.00075 
733 1 0.00241405 0.0412007 0.0205 0.0005 
1108 1 0.000749994 0.0401435 0.02075 0.00075 
316 1 0.000501397 0.0366657 0.020501 0.0005 
1276 1 0.00265366 0.039788 0.0209999 0.001 
91 1 0.00608758 0.0408764 0.0207499 0.00075 
2422 1 0.00068878 0.0414018 0.0205 0.0005 
2458 1 0.00467749 0.0390731 0.0205 0.0005 
1177 1 0.00412825 0.0414691 0.0212497 0.00125 
2542 1 0.00663754 0.038952 0.0207501 0.00075 
457 1 0.00116346 0.0383458 0.0209999 0.001 
451 1 0.00156813 0.0423061 0.02075 0.00075 
2629 1 0.00668787 0.0400664 0.0214926 0.0005 
2527 1 0.00737636 0.0400803 0.0205 0.0005 
2634 1 0.00619161 0.0364227 0.0205062 0.0005 
2713 1 0.00699469 0.0383202 0.0217688 0.0005 
2553 1 0.00153579 0.0410823 0.0210023 0.0005 
1679 1 0.006658 0.0422644 0.0207499 0.00075 
1568 1 0.00324829 0.0384012 0.0209988 0.0005 
2694 1 0.00162907 0.0421009 0.0219815 0.0005 
1309 1 0.00573323 0.042088 0.021572 0.0005 
2689 1 0.0073974 0.0393697 0.0216604 0.0005 
2152 1 0.000502026 0.0359663 0.0213417 0.0005 
2534 1 0.00119846 0.0396418 0.0218033 0.0005 
2692 1 0.00585239 0.0372629 0.0211518 0.0005 
2551 1 0.00580503 0.0363114 0.021456 0.0005 
2359 1 0.00737926 0.0413632 0.0223136 0.0005 
2554 1 0.00615717 0.041113 0.0222295 0.00075 
1281 1 0.000758854 0.0369835 0.0220212 0.00075 
2018 1 0.00734263 0.0423461 0.0217924 0.0005 
1000 1 0.00499863 0.0389163 0.0222843 0.00125 
2856 1 0.000704565 0.0405373 0.0221191 0.0005 
1424 1 0.00272174 0.03854 0.0222259 0.00075 
1949 1 0.000501932 0.03893 0.0222434 0.0005 
924 1 0.0114808 0.0355072 0.0204999 0.0005 
1167 1 0.0143122 0.0355716 0.0205001 0.0005 
960 1 0.00842471 0.0359463 0.0207503 0.00075 
471 1 0.0101577 0.0393276 0.02125 0.00125 
1353 1 0.00954464 0.041706 0.0204999 0.0005 
1419 1 0.0123436 0.0377809 0.0207499 0.00075 