ITEM: TIMESTEP
350000
ITEM: NUMBER OF ATOMS
2858
ITEM: BOX BOUNDS mm mm mm
-2.4e-06 0.0240024
-7.8e-06 0.0780078
-3e-06 0.030003
ITEM: ATOMS id type x y z radius 
291 1 0.00372871 0.00184368 0.0217558 0.0015 
368 1 0.000500393 0.00153242 0.0205 0.0005 
784 1 0.00581704 0.00363067 0.02075 0.00075 
32 1 0.00554 0.000674176 0.0205 0.0005 
241 1 0.00511016 0.00256095 0.0205 0.0005 
815 1 0.00221984 0.000515638 0.0205232 0.0005 
448 1 0.00458939 0.00376008 0.0205 0.0005 
300 1 0.000500422 0.000500311 0.0205001 0.0005 
442 1 0.00141092 0.00263584 0.0209999 0.001 
816 1 0.00615335 0.0048971 0.0205 0.0005 
710 1 0.00455135 0.000521208 0.0205 0.0005 
527 1 0.00101435 0.00586242 0.0211971 0.0005 
100 1 0.00570545 0.00246715 0.0214063 0.0005 
153 1 0.00568434 0.00172542 0.0205 0.0005 
722 1 0.00270826 0.0059068 0.0204999 0.0005 
864 1 0.00573906 0.00134153 0.0214554 0.0005 
503 1 0.00050028 0.00380345 0.021242 0.0005 
561 1 0.00677206 0.002291 0.02075 0.00075 
501 1 0.00665851 0.000774885 0.0214611 0.0005 
64 1 0.00704724 0.00680518 0.0210165 0.001 
954 1 0.00652474 0.000499999 0.0205 0.0005 
380 1 0.0056504 0.00698398 0.0205 0.0005 
587 1 0.000654252 0.00245332 0.0222849 0.0005 
370 1 0.00768756 0.000884562 0.02075 0.00075 
28 1 0.00117506 0.000958673 0.0214491 0.00075 
220 1 0.00763891 0.000750625 0.0222443 0.00075 
307 1 0.00799631 0.00219674 0.0205 0.0005 
2736 1 0.00363739 0.00345213 0.0205637 0.0005 
998 1 0.0016789 0.00680246 0.0218378 0.00075 
870 1 0.00833284 0.00623077 0.0204999 0.0005 
324 1 0.00835358 0.00423098 0.0219997 0.002 
1195 1 0.00890393 0.00170326 0.0215031 0.0005 
121 1 0.00932233 0.00637487 0.0205 0.0005 
228 1 0.00989041 0.00555139 0.0205 0.0005 
490 1 0.0103115 0.00463515 0.0204996 0.0005 
199 1 0.0118528 0.00341314 0.0204999 0.0005 
395 1 0.0108521 0.00277575 0.0205 0.0005 
474 1 0.0140749 0.00196962 0.0207498 0.00075 
282 1 0.0106376 0.0013726 0.0204999 0.0005 
590 1 0.0098599 0.000519343 0.0205 0.0005 
176 1 0.013747 0.000500695 0.0205 0.0005 
289 1 0.0111542 0.000502256 0.0205 0.0005 
362 1 0.00885907 0.000500098 0.0205 0.0005 
783 1 0.0111938 0.00416497 0.0204999 0.0005 
51 1 0.0134372 0.00326419 0.0205 0.0005 
233 1 0.0097558 0.00222247 0.02075 0.00075 
217 1 0.0110829 0.00527096 0.0204998 0.0005 
549 1 0.0106832 0.00498603 0.021371 0.0005 
126 1 0.01277 0.00488201 0.0215002 0.0015 
676 1 0.0105099 0.000749896 0.0215761 0.00075 
209 1 0.0139413 0.00615773 0.0205 0.0005 
730 1 0.00875203 0.00149766 0.0205 0.0005 
764 1 0.0108257 0.00681617 0.0212793 0.00125 
311 1 0.0145252 0.00673246 0.0217579 0.001 
763 1 0.0102879 0.00362828 0.0205 0.0005 
66 1 0.0145456 0.00503066 0.0205 0.0005 
61 1 0.0149215 0.00595741 0.0205 0.0005 
108 1 0.0151713 0.00356576 0.0212498 0.00125 
89 1 0.00869081 0.000508038 0.0214857 0.0005 
155 1 0.0121418 0.00185902 0.0212501 0.00125 
178 1 0.0149843 0.000749952 0.0207499 0.00075 
364 1 0.0110075 0.003481 0.0215367 0.00075 
895 1 0.0115919 0.000502226 0.0222127 0.0005 
598 1 0.0129129 0.000499703 0.022037 0.0005 
171 1 0.0131383 0.0070827 0.0207499 0.00075 
581 1 0.0126112 0.0070349 0.0221534 0.00075 
161 1 0.0232501 0.000749937 0.0207499 0.00075 
159 1 0.0227754 0.00337889 0.0204999 0.0005 
204 1 0.0235 0.00522811 0.0205 0.0005 
219 1 0.0214908 0.000999936 0.0209998 0.001 
333 1 0.0232499 0.00425947 0.0212494 0.00075 
142 1 0.0232501 0.00224991 0.0207499 0.00075 
200 1 0.0203308 0.00261537 0.0207498 0.00075 
340 1 0.0215942 0.00441748 0.02075 0.00075 
452 1 0.0235001 0.00622952 0.0204999 0.0005 
518 1 0.0197304 0.000750735 0.02075 0.00075 
185 1 0.016482 0.0057006 0.0212499 0.00125 
31 1 0.0169687 0.00149986 0.0214998 0.0015 
123 1 0.0228771 0.00099983 0.0224411 0.001 
273 1 0.0218482 0.00289504 0.0215751 0.001 
113 1 0.0168229 0.00330567 0.0205 0.0005 
544 1 0.018785 0.00424476 0.0209998 0.001 
577 1 0.02325 0.00576217 0.0216318 0.00075 
652 1 0.0182083 0.00554379 0.0214901 0.0005 
290 1 0.0188344 0.00251187 0.02075 0.00075 
281 1 0.0204183 0.00390266 0.0215266 0.00075 
57 1 0.0203202 0.00615587 0.0214999 0.0015 
143 1 0.022553 0.00567879 0.0205 0.0005 
853 1 0.0180687 0.00552741 0.0205 0.0005 
106 1 0.0221095 0.00526187 0.0215141 0.0005 
1012 1 0.0181682 0.00677681 0.0217123 0.00075 
109 1 0.0185636 0.00640108 0.0205 0.0005 
256 1 0.00102773 0.00722059 0.0205 0.0005 
75 1 0.0026215 0.00722454 0.02075 0.00075 
887 1 0.00729649 0.00767283 0.0222188 0.0005 
274 1 0.00799162 0.0078498 0.0205 0.0005 
1359 1 0.00379377 0.00784088 0.0205 0.0005 
588 1 0.00472426 0.00747368 0.0205 0.0005 
360 1 0.00640775 0.0120397 0.0205 0.0005 
154 1 0.00514148 0.00862895 0.02075 0.00075 
13 1 0.000499998 0.00807508 0.0205 0.0005 
879 1 0.00610611 0.00787424 0.0205 0.0005 
137 1 0.000847934 0.0090167 0.0205 0.0005 
44 1 0.00532541 0.0102308 0.02075 0.00075 
1166 1 0.00611174 0.00809526 0.0217687 0.00075 
1234 1 0.00590492 0.00935293 0.0214253 0.0005 
323 1 0.00292274 0.00966819 0.0219998 0.002 
820 1 0.000684838 0.0100057 0.0205 0.0005 
1067 1 0.00789142 0.0126827 0.0204995 0.0005 
713 1 0.00253492 0.0118439 0.0205 0.0005 
881 1 0.000501194 0.0109932 0.0205 0.0005 
943 1 0.0039372 0.0116691 0.0205 0.0005 
673 1 0.00516523 0.0117224 0.02075 0.00075 
174 1 0.00109887 0.0122764 0.0209998 0.001 
447 1 0.00633617 0.00918168 0.0205 0.0005 
737 1 0.00566521 0.0129134 0.0205 0.0005 
646 1 0.00153997 0.0139268 0.0205 0.0005 
508 1 0.000500991 0.0135583 0.0205 0.0005 
872 1 0.00752632 0.0115142 0.0207499 0.00075 
439 1 0.00701286 0.0139964 0.02125 0.00125 
891 1 0.00704678 0.00821342 0.0204999 0.0005 
1190 1 0.0053881 0.00935646 0.0222819 0.0005 
479 1 0.00051248 0.0133759 0.0219652 0.0005 
911 1 0.00505504 0.0111763 0.0218689 0.0005 
296 1 0.00366224 0.0138457 0.0222498 0.00225 
35 1 0.00787035 0.00953248 0.0217575 0.0015 
196 1 0.00050331 0.0141394 0.0213139 0.0005 
2621 1 0.00636446 0.010927 0.0205 0.0005 
1032 1 0.0056827 0.0103207 0.0219602 0.0005 
1070 1 0.00846751 0.00729747 0.0219126 0.00075 
636 1 0.0120985 0.0077309 0.0205003 0.0005 
275 1 0.0145103 0.00835835 0.0207499 0.00075 
46 1 0.00921601 0.00787821 0.0207499 0.00075 
556 1 0.0138091 0.0096856 0.02075 0.00075 
287 1 0.0108033 0.0109036 0.0205 0.0005 
865 1 0.013259 0.0126353 0.0205 0.0005 
756 1 0.0117059 0.00941669 0.0215027 0.0015 
318 1 0.0135847 0.00820495 0.0219203 0.00075 
686 1 0.00966073 0.00901911 0.0204999 0.0005 
10 1 0.0155155 0.00905964 0.0205 0.0005 
569 1 0.0125227 0.0109435 0.0205001 0.0005 
252 1 0.00868635 0.0110597 0.0205 0.0005 
188 1 0.0149209 0.0131257 0.0214999 0.0015 
772 1 0.0125353 0.0119448 0.0204999 0.0005 
709 1 0.00975269 0.0102402 0.0207495 0.00075 
1061 1 0.0116374 0.011463 0.0205 0.0005 
1118 1 0.00976255 0.0101885 0.0219982 0.0005 
59 1 0.0118907 0.0127093 0.0205 0.0005 
974 1 0.011435 0.0139557 0.0205 0.0005 
734 1 0.0126298 0.0136864 0.02075 0.00075 
968 1 0.0125025 0.0115155 0.0216733 0.00075 
62 1 0.00989061 0.012685 0.0219999 0.002 
1238 1 0.0103712 0.0083155 0.0204999 0.0005 
1028 1 0.0137064 0.01126 0.0207503 0.00075 
1653 1 0.0146246 0.00934305 0.0216334 0.0005 
80 1 0.0153177 0.010536 0.0210023 0.001 
810 1 0.00979948 0.00835066 0.0220484 0.00075 
1080 1 0.0138701 0.0112806 0.0222428 0.00075 
714 1 0.0160021 0.0117725 0.0205 0.0005 
192 1 0.0157372 0.00749155 0.0207496 0.00075 
1056 1 0.0158095 0.0114348 0.0220998 0.0005 
1883 1 0.0153733 0.0106164 0.0224991 0.0005 
1922 1 0.0165124 0.00845938 0.0205 0.0005 
6 1 0.0225146 0.00724376 0.0209998 0.001 
190 1 0.0172713 0.00749666 0.0207497 0.00075 
1846 1 0.0163907 0.00954357 0.0205 0.0005 
342 1 0.0169586 0.0125374 0.0207498 0.00075 
319 1 0.0210169 0.00774198 0.0205 0.0005 
293 1 0.0187409 0.0110979 0.0217498 0.00175 
735 1 0.02076 0.0101113 0.0216378 0.0005 
308 1 0.0201441 0.00885478 0.0209999 0.001 
49 1 0.0170503 0.0102967 0.0205 0.0005 
146 1 0.0194225 0.00763746 0.0205 0.0005 
578 1 0.0230001 0.00918374 0.0209999 0.001 
90 1 0.018557 0.00814788 0.0212435 0.00075 
71 1 0.0215758 0.00877546 0.0205 0.0005 
659 1 0.0175476 0.0091416 0.02075 0.00075 
967 1 0.0168758 0.0112816 0.0205 0.0005 
130 1 0.02139 0.0118921 0.0205 0.0005 
41 1 0.02163 0.0102432 0.02075 0.00075 
231 1 0.0235002 0.0105064 0.0204999 0.0005 
279 1 0.0235 0.00802847 0.0218156 0.0005 
693 1 0.0213061 0.00801556 0.0214419 0.0005 
725 1 0.0226264 0.0113643 0.02075 0.00075 
697 1 0.0204055 0.0102444 0.0204998 0.0005 
330 1 0.0223452 0.0128375 0.0207498 0.00075 
78 1 0.022815 0.013973 0.0205 0.0005 
800 1 0.020604 0.0112719 0.0205 0.0005 
538 1 0.0234998 0.0122255 0.0205 0.0005 
1236 1 0.0176921 0.0130946 0.0217816 0.0005 
812 1 0.0215953 0.0121243 0.0214507 0.0005 
944 1 0.0234965 0.0136505 0.021414 0.0005 
794 1 0.0167724 0.0125257 0.0219856 0.0005 
592 1 0.018013 0.0131601 0.0204998 0.0005 
910 1 0.0215513 0.00920663 0.0219812 0.00075 
523 1 0.0186811 0.0139042 0.0205128 0.0005 
956 1 0.0189906 0.0129515 0.0204997 0.0005 
350 1 0.0204763 0.0138399 0.0215007 0.0015 
639 1 0.022469 0.0139995 0.0214378 0.0005 
1899 1 0.0165083 0.0115642 0.0213938 0.0005 
1138 1 0.0227659 0.0105838 0.0220232 0.00075 
272 1 0.0235002 0.0132446 0.0204999 0.0005 
770 1 0.0234999 0.0116095 0.0216099 0.0005 
1517 1 0.0211477 0.0112368 0.0213386 0.0005 
1498 1 0.0185498 0.0133322 0.0213257 0.0005 
1575 1 0.0220089 0.00805639 0.0221548 0.0005 
2494 1 0.0187078 0.0132766 0.0223116 0.0005 
782 1 0.000499961 0.0148152 0.0220564 0.0005 
70 1 0.000502508 0.0147341 0.0205 0.0005 
888 1 0.0033058 0.0159929 0.0205 0.0005 
550 1 0.00346179 0.0170829 0.0205 0.0005 
1 1 0.00770159 0.015806 0.0207498 0.00075 
529 1 0.00124967 0.0161755 0.0212498 0.00125 
269 1 0.00740165 0.0177189 0.0212498 0.00125 
19 1 0.00503816 0.0169045 0.0212497 0.00125 
1077 1 0.0065362 0.0163384 0.0205 0.0005 
1060 1 0.00781002 0.0154068 0.0219295 0.0005 
1004 1 0.00635492 0.0193846 0.02075 0.00075 
688 1 0.0005027 0.019263 0.0205002 0.0005 
896 1 0.00757598 0.0192903 0.0204999 0.0005 
1660 1 0.00568393 0.0183597 0.0205 0.0005 
972 1 0.00665904 0.015884 0.0218253 0.00075 
223 1 0.0038066 0.0195939 0.0217499 0.00175 
700 1 0.00577425 0.0207677 0.0207499 0.00075 
678 1 0.00110073 0.0207207 0.0209998 0.001 
315 1 0.00305169 0.0169424 0.0216779 0.00075 
576 1 0.000843293 0.0180708 0.02075 0.00075 
1094 1 0.00619626 0.0190093 0.0221948 0.00075 
1884 1 0.000500004 0.0190342 0.0214748 0.0005 
430 1 0.00223858 0.0177744 0.0205593 0.0005 
1293 1 0.00247919 0.0210666 0.0205 0.0005 
1829 1 0.00634385 0.0169474 0.0224142 0.0005 
600 1 0.00802482 0.0208062 0.0212499 0.00125 
611 1 0.00859778 0.0142152 0.0205 0.0005 
110 1 0.0136235 0.0144099 0.0205 0.0005 
2226 1 0.013318 0.0144357 0.0214767 0.0005 
436 1 0.0082746 0.0162767 0.0217562 0.0005 
43 1 0.015592 0.0147219 0.0204998 0.0005 
877 1 0.00896359 0.0194603 0.0205 0.0005 
1859 1 0.00873215 0.0188563 0.0212626 0.0005 
748 1 0.00831002 0.0146049 0.0222567 0.0005 
1682 1 0.00981902 0.0212141 0.0224836 0.0005 
1570 1 0.00898327 0.0181598 0.0205 0.0005 
1144 1 0.00973633 0.0211456 0.0214872 0.0005 
695 1 0.00896315 0.0151594 0.0212395 0.00075 
54 1 0.00945025 0.0168228 0.0209999 0.001 
786 1 0.00980153 0.015188 0.0221679 0.0005 
180 1 0.0111164 0.0191079 0.0220005 0.002 
221 1 0.0116275 0.0156819 0.0214999 0.0015 
118 1 0.0143626 0.0158208 0.0212486 0.00125 
717 1 0.0130475 0.018575 0.0205 0.0005 
1232 1 0.00997302 0.0148806 0.0205 0.0005 
934 1 0.0141664 0.0190729 0.0207531 0.00075 
1310 1 0.01386 0.0178869 0.0204999 0.0005 
1212 1 0.015091 0.0182706 0.0205 0.0005 
624 1 0.0130325 0.0166973 0.0205 0.0005 
1035 1 0.0120752 0.0173543 0.0204995 0.0005 
1592 1 0.0130572 0.0195916 0.0205003 0.0005 
1697 1 0.00966395 0.0205594 0.0205 0.0005 
2033 1 0.0136954 0.0201073 0.0214879 0.0005 
1264 1 0.0117346 0.0210091 0.0204998 0.0005 
1164 1 0.0129409 0.020809 0.0207594 0.00075 
2117 1 0.0159639 0.0151219 0.0213439 0.0005 
982 1 0.01505 0.0201876 0.0205 0.0005 
1448 1 0.0129609 0.0176426 0.0208627 0.0005 
2386 1 0.0143813 0.0177886 0.0216315 0.00075 
2420 1 0.0140547 0.0202995 0.0205 0.0005 
2431 1 0.0149817 0.0172766 0.0204999 0.0005 
2511 1 0.0157526 0.0166398 0.0205 0.0005 
2287 1 0.0153277 0.0189534 0.0212001 0.0005 
2500 1 0.0155177 0.0197857 0.0217288 0.0005 
2378 1 0.0146832 0.0202558 0.0214304 0.0005 
2447 1 0.013852 0.0190318 0.0222857 0.00075 
2086 1 0.0136318 0.0170284 0.022285 0.0005 
1311 1 0.0157821 0.0195039 0.0204998 0.0005 
1601 1 0.0130883 0.0209921 0.0223557 0.00075 
2645 1 0.015638 0.0170127 0.0214556 0.0005 
1338 1 0.0159205 0.0176256 0.0205 0.0005 
1376 1 0.00889247 0.0179725 0.0221339 0.0005 
2392 1 0.0128039 0.0172752 0.0217796 0.0005 
189 1 0.0159426 0.0156581 0.0205 0.0005 
2630 1 0.0147685 0.0198796 0.0223853 0.0005 
2614 1 0.0155969 0.0204346 0.0225034 0.0005 
1757 1 0.0149315 0.0211241 0.0218602 0.0005 
2594 1 0.0139309 0.0211488 0.0214436 0.0005 
2618 1 0.0149743 0.0169438 0.0224559 0.0005 
2460 1 0.0162162 0.0185819 0.0205 0.0005 
139 1 0.0171641 0.0142909 0.021 0.001 
1193 1 0.0185942 0.0145083 0.0213973 0.0005 
345 1 0.0187969 0.0149011 0.0205 0.0005 
741 1 0.0176683 0.0155766 0.0215924 0.0005 
450 1 0.0180512 0.0155675 0.0205 0.0005 
947 1 0.017702 0.017255 0.0205 0.0005 
591 1 0.022171 0.0151151 0.02075 0.00075 
465 1 0.0187072 0.0166249 0.0205 0.0005 
719 1 0.0189376 0.0157263 0.0214284 0.00075 
628 1 0.0235002 0.0164915 0.0204998 0.0005 
42 1 0.0223133 0.016793 0.02075 0.00075 
747 1 0.0210403 0.0155922 0.0205 0.0005 
813 1 0.0201128 0.0164717 0.0204999 0.0005 
787 1 0.0186239 0.0176425 0.0205003 0.0005 
492 1 0.0195667 0.0173094 0.0204999 0.0005 
238 1 0.0234999 0.0174914 0.0205 0.0005 
1216 1 0.0197563 0.0169581 0.0216843 0.00075 
1230 1 0.0170218 0.0162366 0.0207505 0.00075 
566 1 0.0207135 0.0177607 0.02075 0.00075 
1333 1 0.0211057 0.01659 0.0204999 0.0005 
1091 1 0.0196171 0.018308 0.0205 0.0005 
1398 1 0.0210767 0.0198985 0.0205 0.0005 
1189 1 0.0235 0.0145417 0.0209552 0.0005 
1427 1 0.0197038 0.0153896 0.0205 0.0005 
898 1 0.0187217 0.017844 0.0214758 0.0005 
1452 1 0.0198714 0.0195059 0.02075 0.00075 
1488 1 0.0184456 0.0188652 0.02075 0.00075 
1124 1 0.0235 0.015432 0.0205 0.0005 
1020 1 0.0225002 0.0189061 0.0214997 0.0015 
1401 1 0.0213938 0.0161423 0.0220919 0.001 
1298 1 0.020187 0.0158253 0.0212593 0.0005 
1170 1 0.0232298 0.0159641 0.0216001 0.00075 
1831 1 0.0175848 0.0179632 0.0212309 0.0005 
957 1 0.0234987 0.0205402 0.0204998 0.0005 
1320 1 0.0190025 0.0207383 0.02075 0.00075 
1598 1 0.0200357 0.0205945 0.0214388 0.0005 
1437 1 0.0235001 0.020638 0.0214948 0.0005 
1184 1 0.0235001 0.0171749 0.0214486 0.0005 
1692 1 0.019429 0.0185837 0.0214712 0.0005 
1828 1 0.0180741 0.0166846 0.0212746 0.0005 
1202 1 0.0207808 0.0199297 0.0214955 0.0005 
1460 1 0.0209168 0.0208692 0.0218425 0.0005 
1984 1 0.0187972 0.0197763 0.0215303 0.0005 
1738 1 0.0172228 0.0187979 0.0204999 0.0005 
1648 1 0.0171013 0.0203728 0.0212531 0.00125 
2467 1 0.0168995 0.0178517 0.0205 0.0005 
1963 1 0.0186689 0.0206623 0.0219766 0.0005 
1434 1 0.0232501 0.0145947 0.0222113 0.00075 
1796 1 0.0195831 0.0194032 0.0220238 0.0005 
1105 1 0.0205453 0.0207519 0.0205 0.0005 
1865 1 0.016736 0.0185677 0.0213661 0.0005 
1767 1 0.0210526 0.0175963 0.0219427 0.0005 
1929 1 0.0201934 0.0181076 0.0219101 0.0005 
2072 1 0.0234994 0.0174235 0.0224174 0.0005 
2099 1 0.0198645 0.0157042 0.0222672 0.0005 
1416 1 0.00376211 0.0214712 0.0205 0.0005 
1578 1 0.00503189 0.021472 0.0214729 0.0005 
482 1 0.000499893 0.0220008 0.0204999 0.0005 
12 1 0.00193124 0.0222406 0.0207499 0.00075 
952 1 0.00580881 0.0243678 0.0205 0.0005 
1439 1 0.00749053 0.022883 0.0207527 0.00075 
831 1 0.00524649 0.0228899 0.0209999 0.001 
534 1 0.000755412 0.0231984 0.0207498 0.00075 
1423 1 0.00160035 0.0272234 0.0212486 0.0005 
1406 1 0.000541537 0.0256752 0.0205 0.0005 
483 1 0.0005 0.0271553 0.0205 0.0005 
1483 1 0.00680192 0.0218136 0.0205 0.0005 
1512 1 0.00350215 0.0239912 0.0205 0.0005 
752 1 0.00573296 0.0256914 0.0205 0.0005 
1805 1 0.00334355 0.0227473 0.02075 0.00075 
1576 1 0.000564761 0.0244089 0.0205 0.0005 
1373 1 0.0070026 0.0256836 0.0207544 0.00075 
1860 1 0.00477908 0.0214964 0.0205 0.0005 
1625 1 0.000501147 0.0222237 0.0214902 0.0005 
1455 1 0.00199776 0.0244051 0.0209999 0.001 
1942 1 0.00632724 0.0217358 0.0217532 0.00075 
1926 1 0.000525014 0.0234091 0.0219625 0.0005 
1520 1 0.00727503 0.0268245 0.0212133 0.0005 
1143 1 0.00348492 0.0282446 0.0208154 0.00075 
2021 1 0.00792065 0.0264959 0.0205 0.0005 
980 1 0.00668813 0.0272093 0.0205 0.0005 
1825 1 0.000503328 0.0245923 0.0214811 0.0005 
2481 1 0.00735792 0.0282219 0.0205347 0.0005 
2583 1 0.00439214 0.0241593 0.0209238 0.0005 
1893 1 0.000984705 0.0242447 0.0222896 0.0005 
2706 1 0.0005491 0.0253881 0.0222879 0.0005 
348 1 0.00249018 0.0275566 0.0205 0.0005 
775 1 0.00583959 0.0249191 0.0221939 0.00125 
1662 1 0.00399924 0.022081 0.0219232 0.00075 
1285 1 0.000749916 0.0283523 0.0207594 0.00075 
2759 1 0.00105831 0.0271902 0.02234 0.0005 
2168 1 0.00747863 0.026113 0.0222209 0.00075 
1702 1 0.000537867 0.0280023 0.021992 0.0005 
2244 1 0.00197756 0.0281505 0.0212054 0.0005 
2852 1 0.00502697 0.0267051 0.0215399 0.0005 
1577 1 0.014309 0.0212667 0.0205 0.0005 
1650 1 0.00815251 0.0224051 0.0219504 0.0005 
946 1 0.0082536 0.0242694 0.0221928 0.00125 
904 1 0.00854695 0.0238627 0.0205 0.0005 
1081 1 0.00876612 0.0259581 0.0205 0.0005 
1343 1 0.0106534 0.0215862 0.0207494 0.00075 
1394 1 0.00928769 0.0226513 0.0210006 0.001 
1698 1 0.00949255 0.0248877 0.0207499 0.00075 
1342 1 0.010495 0.0243108 0.0217043 0.00075 
978 1 0.0100202 0.0260889 0.0205 0.0005 
1208 1 0.0100889 0.0238162 0.0204999 0.0005 
1350 1 0.0131197 0.0235269 0.0205 0.0005 
919 1 0.0092689 0.027796 0.0217588 0.00175 
780 1 0.0125412 0.0254906 0.0205004 0.0005 
353 1 0.0146679 0.023572 0.0204998 0.0005 
1294 1 0.0123561 0.0228723 0.0204998 0.0005 
1180 1 0.0118672 0.0220001 0.0205 0.0005 
1462 1 0.0109051 0.0256793 0.021381 0.0005 
1467 1 0.01188 0.0239582 0.0205 0.0005 
1552 1 0.0128156 0.0221522 0.021415 0.00075 
1602 1 0.0110255 0.0262077 0.0205 0.0005 
1621 1 0.0120299 0.0252243 0.0216874 0.00075 
861 1 0.0139524 0.0245659 0.02075 0.00075 
1643 1 0.0116477 0.0250413 0.0205 0.0005 
1539 1 0.0127265 0.0244901 0.0205 0.0005 
1330 1 0.0136161 0.0234971 0.0213676 0.0005 
1192 1 0.0144996 0.025896 0.0205 0.0005 
1614 1 0.0110692 0.0230358 0.0207569 0.00075 
1693 1 0.0153249 0.0226965 0.0204999 0.0005 
1618 1 0.0109497 0.024325 0.0205 0.0005 
1221 1 0.0141202 0.0224767 0.0207501 0.00075 
1915 1 0.0135141 0.0257211 0.0205 0.0005 
1869 1 0.0106528 0.0252798 0.0204998 0.0005 
1655 1 0.0113024 0.0220942 0.0222921 0.001 
2193 1 0.0110982 0.027205 0.0204999 0.0005 
2263 1 0.0139043 0.0257065 0.0214231 0.0005 
2270 1 0.0126733 0.0270665 0.0212498 0.00125 
1753 1 0.0149896 0.0237619 0.0214273 0.0005 
862 1 0.0145552 0.0271969 0.0205 0.0005 
1775 1 0.0144056 0.021976 0.021863 0.0005 
2004 1 0.0144392 0.0265401 0.0212638 0.0005 
1958 1 0.0144403 0.0275211 0.0214618 0.0005 
2243 1 0.0156922 0.0268419 0.020887 0.00075 
1017 1 0.015514 0.0214856 0.02075 0.00075 
2348 1 0.0145432 0.022981 0.021936 0.0005 
1955 1 0.0150971 0.0261275 0.0218941 0.0005 
144 1 0.0156319 0.0250482 0.0209999 0.001 
1563 1 0.0157298 0.0236107 0.0205 0.0005 
2603 1 0.0121443 0.0232064 0.021418 0.0005 
2121 1 0.00993868 0.0256507 0.0216366 0.0005 
2261 1 0.0153648 0.0275919 0.0218378 0.0005 
2026 1 0.0113204 0.0262961 0.02205 0.0005 
2662 1 0.01362 0.0226598 0.0222307 0.0005 
1876 1 0.0158306 0.0242674 0.0224197 0.0005 
2201 1 0.0117074 0.0240219 0.021797 0.0005 
2403 1 0.0120222 0.0281831 0.0224309 0.0005 
2393 1 0.011459 0.0282947 0.0215347 0.0005 
1755 1 0.0159072 0.0213089 0.0221289 0.0005 
1935 1 0.0111306 0.0282043 0.0205 0.0005 
2010 1 0.0127609 0.0232127 0.0222146 0.0005 
1931 1 0.0107301 0.0253852 0.0223249 0.0005 
1794 1 0.0160453 0.0227698 0.0218154 0.001 
1219 1 0.022087 0.0213218 0.021 0.001 
152 1 0.0209971 0.0236328 0.0205 0.0005 
1292 1 0.0169791 0.0239413 0.02075 0.00075 
512 1 0.019116 0.0265605 0.0205 0.0005 
1288 1 0.0166756 0.021894 0.0205 0.0005 
1048 1 0.0181885 0.0220013 0.02075 0.00075 
1415 1 0.0216403 0.0226708 0.0205 0.0005 
1087 1 0.0234991 0.0254279 0.0205 0.0005 
1176 1 0.0181741 0.0257765 0.02075 0.00075 
1269 1 0.0232481 0.0226071 0.02075 0.00075 
1507 1 0.0234998 0.0247539 0.0218041 0.0005 
1574 1 0.0234959 0.0264279 0.0205 0.0005 
1472 1 0.02325 0.0241104 0.0207604 0.00075 
1590 1 0.0222961 0.0248755 0.0204998 0.0005 
1634 1 0.0186486 0.0236236 0.02075 0.00075 
908 1 0.0221864 0.0235083 0.0204999 0.0005 
1646 1 0.0172107 0.0227387 0.0205 0.0005 
1927 1 0.016728 0.0262556 0.0205 0.0005 
1897 1 0.0177744 0.0230392 0.02182 0.00075 
1370 1 0.02311 0.0276127 0.0207499 0.00075 
1243 1 0.0200837 0.0249238 0.0212499 0.00125 
1978 1 0.0170241 0.0253003 0.0205 0.0005 
1881 1 0.0167197 0.0242643 0.0219354 0.0005 
1514 1 0.0200945 0.0223369 0.0212541 0.00125 
1925 1 0.0216633 0.0242383 0.0209393 0.0005 
1768 1 0.0160697 0.0279746 0.0205 0.0005 
1527 1 0.0179683 0.0246 0.021665 0.00075 
1106 1 0.0176386 0.0276423 0.0212499 0.00125 
1323 1 0.0191778 0.0280405 0.0205 0.0005 
1090 1 0.0223084 0.0260862 0.0217632 0.00125 
1837 1 0.0162751 0.0275228 0.0223405 0.0005 
1015 1 0.0218537 0.0276572 0.0205 0.0005 
1974 1 0.0235 0.0279894 0.0218762 0.0005 
1267 1 0.0204659 0.0271287 0.0209999 0.001 
2065 1 0.0188915 0.0237245 0.0219721 0.0005 
1758 1 0.0165781 0.0260576 0.0224439 0.001 
2303 1 0.0185023 0.0218412 0.0223582 0.00075 
1910 1 0.0192207 0.0271745 0.021835 0.0005 
2198 1 0.0234998 0.0271698 0.0224491 0.0005 
2162 1 0.0212598 0.0217248 0.0224227 0.0005 
1480 1 0.00637706 0.0292328 0.02075 0.00075 
1103 1 0.00519649 0.0295584 0.0204999 0.0005 
138 1 0.00760339 0.0293048 0.0205 0.0005 
162 1 0.000577881 0.0324779 0.0205 0.0005 
259 1 0.00357647 0.0320163 0.0205 0.0005 
522 1 0.00129847 0.0336787 0.0207499 0.00075 
337 1 0.0032034 0.0306796 0.0207506 0.00075 
638 1 0.00449847 0.0331794 0.02075 0.00075 
506 1 0.000552939 0.0350938 0.0213729 0.0005 
1084 1 0.00132933 0.030543 0.0207507 0.00075 
1355 1 0.00252205 0.0337321 0.0205 0.0005 
1451 1 0.00428201 0.0291541 0.0205 0.0005 
412 1 0.00210733 0.0320906 0.0209999 0.001 
1607 1 0.00148647 0.0293283 0.0205 0.0005 
1529 1 0.00551006 0.0350756 0.02075 0.00075 
1290 1 0.000500023 0.0295946 0.0205 0.0005 
1449 1 0.00239406 0.0287672 0.0205 0.0005 
1761 1 0.00609822 0.0340007 0.0205 0.0005 
1760 1 0.00324732 0.0330309 0.0205633 0.0005 
1611 1 0.00502297 0.0341185 0.0213958 0.0005 
2278 1 0.00238589 0.0297672 0.0205 0.0005 
2306 1 0.00551946 0.0320313 0.0207499 0.00075 
2343 1 0.00582921 0.0303326 0.0204999 0.0005 
2387 1 0.00679372 0.0329795 0.02075 0.00075 
2407 1 0.00435755 0.0313817 0.0205 0.0005 
2421 1 0.00567065 0.0333613 0.0211441 0.0005 
2423 1 0.00612613 0.0299281 0.0224619 0.00075 
2493 1 0.00725473 0.0342006 0.0217529 0.0005 
672 1 0.00709996 0.0349372 0.020751 0.00075 
2537 1 0.00430945 0.0301539 0.0205 0.0005 
1872 1 0.0072209 0.0310829 0.0212499 0.00125 
1792 1 0.00437716 0.0318454 0.021704 0.00075 
2484 1 0.0057339 0.0317044 0.0219372 0.0005 
2573 1 0.00503656 0.0305229 0.0214475 0.00075 
2427 1 0.00491167 0.028794 0.0212068 0.0005 
1993 1 0.00189082 0.0291666 0.021934 0.00075 
2455 1 0.00752763 0.0327856 0.021743 0.0005 
2622 1 0.00641968 0.0324943 0.0219132 0.0005 
1291 1 0.000749984 0.0337315 0.022145 0.00075 
2548 1 0.00306631 0.0312926 0.0218328 0.0005 
2570 1 0.00531273 0.0327069 0.0218104 0.0005 
897 1 0.000499999 0.0346089 0.0205 0.0005 
1168 1 0.00336319 0.032937 0.0218765 0.00075 
2337 1 0.0078205 0.0335947 0.0211868 0.0005 
2449 1 0.00725904 0.0287928 0.0215186 0.0005 
1136 1 0.00075 0.0320285 0.0221028 0.00075 
2381 1 0.00419074 0.0296968 0.0219048 0.0005 
2530 1 0.00385455 0.030646 0.0219222 0.0005 
2456 1 0.00798008 0.0321812 0.0223998 0.0005 
1987 1 0.0146737 0.0285509 0.0219186 0.0005 
1870 1 0.0142139 0.0285233 0.02075 0.00075 
2301 1 0.0130955 0.0287788 0.0221928 0.00075 
505 1 0.00853283 0.0296765 0.0205 0.0005 
886 1 0.00894867 0.0305891 0.0205 0.0005 
1249 1 0.0134642 0.0330092 0.0207493 0.00075 
1154 1 0.011049 0.0323746 0.0204999 0.0005 
609 1 0.0123049 0.0326095 0.0205 0.0005 
1134 1 0.00843131 0.0325948 0.02075 0.00075 
1340 1 0.0116443 0.033363 0.0205 0.0005 
1678 1 0.0125591 0.0339245 0.0205 0.0005 
1703 1 0.0104234 0.0315266 0.0205004 0.0005 
1095 1 0.0135048 0.0342495 0.0205 0.0005 
1815 1 0.00943381 0.0316991 0.0205 0.0005 
1348 1 0.0129024 0.0302027 0.0205 0.0005 
1594 1 0.0137906 0.0352693 0.0212671 0.0005 
2043 1 0.0106557 0.0290843 0.0205 0.0005 
1867 1 0.00916827 0.0332391 0.0219934 0.00075 
1793 1 0.0141368 0.0297694 0.0217637 0.00075 
2242 1 0.0117955 0.0311738 0.0210001 0.001 
2245 1 0.0100317 0.0305983 0.0212426 0.00075 
2266 1 0.012998 0.028671 0.0205 0.0005 
1954 1 0.0109371 0.0300438 0.0205 0.0005 
924 1 0.011711 0.035321 0.0205 0.0005 
1762 1 0.00896439 0.0312514 0.021261 0.0005 
640 1 0.00991276 0.0328308 0.0207509 0.00075 
2323 1 0.0129484 0.0350908 0.0205 0.0005 
2362 1 0.0138847 0.0298388 0.0205 0.0005 
2347 1 0.0122036 0.0346644 0.0210712 0.0005 
1361 1 0.0151887 0.0301094 0.0207499 0.00075 
2202 1 0.0137913 0.0313056 0.021 0.001 
2451 1 0.0118803 0.0291728 0.02075 0.00075 
1083 1 0.0150771 0.0340817 0.0212499 0.00125 
835 1 0.00829324 0.0341498 0.0205 0.0005 
2305 1 0.0150156 0.0315817 0.0218226 0.0005 
2225 1 0.00971281 0.0296261 0.0205091 0.0005 
2408 1 0.0132452 0.0344451 0.0214458 0.0005 
2304 1 0.0107325 0.0343711 0.0211386 0.001 
2444 1 0.0127676 0.0353923 0.021461 0.0005 
2574 1 0.0130384 0.0294425 0.0211352 0.0005 
698 1 0.0152991 0.0321579 0.02075 0.00075 
2317 1 0.0111777 0.0297411 0.0222517 0.001 
2404 1 0.012387 0.0335685 0.0216857 0.00075 
2390 1 0.00879359 0.0320572 0.0218304 0.0005 
2376 1 0.0133288 0.0349763 0.0222889 0.0005 
2252 1 0.0127061 0.0322794 0.021446 0.0005 
2577 1 0.0116357 0.0326673 0.0212549 0.0005 
2505 1 0.0125539 0.030094 0.0217194 0.0005 
2439 1 0.0156553 0.0325547 0.0218807 0.0005 
2247 1 0.0122862 0.0347557 0.022064 0.0005 
1786 1 0.0154218 0.0287364 0.0205 0.0005 
2469 1 0.00956132 0.035088 0.0205 0.0005 
2412 1 0.0128042 0.0310121 0.0221011 0.0005 
2345 1 0.0104979 0.031922 0.0223261 0.001 
1854 1 0.0159583 0.0286732 0.0216322 0.00075 
2297 1 0.0137265 0.0327477 0.0224589 0.001 
1409 1 0.0164203 0.0289321 0.0205 0.0005 
1113 1 0.0174607 0.0295782 0.02075 0.00075 
1044 1 0.019723 0.0295262 0.0212499 0.00125 
557 1 0.0196002 0.0337154 0.0212499 0.00125 
304 1 0.0225502 0.0310831 0.0204998 0.0005 
1142 1 0.0221781 0.0346236 0.0205 0.0005 
1335 1 0.0173039 0.0330843 0.0204999 0.0005 
1414 1 0.0234965 0.0354474 0.0205 0.0005 
1016 1 0.0232446 0.032155 0.02075 0.00075 
1531 1 0.0179561 0.0338616 0.0205 0.0005 
1329 1 0.0235001 0.0287736 0.0204999 0.0005 
1318 1 0.0184238 0.032659 0.0205 0.0005 
1305 1 0.0181842 0.0308976 0.02075 0.00075 
1258 1 0.0234706 0.0297731 0.0205 0.0005 
1695 1 0.0180124 0.0352897 0.0209999 0.001 
1224 1 0.0165975 0.031408 0.0207943 0.00075 
878 1 0.0232176 0.0336667 0.02075 0.00075 
1213 1 0.01939 0.0317904 0.02075 0.00075 
1447 1 0.0161755 0.0303752 0.0218479 0.00075 
1603 1 0.0164101 0.0302077 0.0205 0.0005 
1403 1 0.0173963 0.0305849 0.0216809 0.0005 
1445 1 0.0235002 0.0307727 0.0205243 0.0005 
1362 1 0.0232499 0.030298 0.021653 0.00075 
1442 1 0.0180799 0.0292491 0.0217847 0.0005 
1626 1 0.0175795 0.0321231 0.0204998 0.0005 
1534 1 0.0221059 0.0299416 0.02075 0.00075 
1579 1 0.0215519 0.0335593 0.02075 0.00075 
1468 1 0.0178266 0.0322089 0.0222298 0.00125 
1227 1 0.0170595 0.0338856 0.0214276 0.00075 
1812 1 0.0234953 0.0290501 0.0214609 0.0005 
2044 1 0.0162596 0.0329176 0.0205 0.0005 
959 1 0.0194412 0.0352889 0.0204999 0.0005 
2008 1 0.0188419 0.028406 0.0222654 0.0005 
1699 1 0.0235 0.0327961 0.0217922 0.0005 
2478 1 0.0165356 0.0350216 0.0210092 0.0005 
2311 1 0.0191179 0.0310947 0.0217522 0.0005 
809 1 0.0212998 0.0316688 0.0219464 0.0015 
1420 1 0.0218358 0.0285144 0.0221249 0.00125 
2382 1 0.0183582 0.0304682 0.0219291 0.0005 
1073 1 0.00667225 0.0372113 0.02075 0.00075 
249 1 0.00306673 0.035668 0.0219998 0.002 
535 1 0.000622065 0.0356164 0.0205 0.0005 
844 1 0.00513874 0.0369907 0.0205 0.0005 
366 1 0.00264337 0.0377218 0.0205 0.0005 
680 1 0.00418753 0.037845 0.0207492 0.00075 
733 1 0.00232257 0.0409133 0.0205 0.0005 
1108 1 0.000749996 0.0400261 0.02075 0.00075 
316 1 0.0005061 0.036615 0.0205 0.0005 
1276 1 0.00267208 0.0395096 0.0209999 0.001 
91 1 0.00613162 0.0410545 0.0207515 0.00075 
2422 1 0.000709974 0.041291 0.0205 0.0005 
2458 1 0.00449679 0.0390877 0.0205 0.0005 
1177 1 0.00420955 0.0413075 0.0212499 0.00125 
2542 1 0.00592469 0.0390792 0.0207608 0.00075 
457 1 0.00107769 0.0382424 0.0209999 0.001 
451 1 0.00148143 0.0422645 0.02075 0.00075 
2629 1 0.00626657 0.0400511 0.021485 0.0005 
2527 1 0.00748186 0.0402402 0.0207158 0.0005 
2634 1 0.00586376 0.0362363 0.0210677 0.0005 
2713 1 0.00652068 0.0387244 0.0218234 0.0005 
2553 1 0.00158086 0.0410892 0.0211866 0.0005 
1679 1 0.00688146 0.042354 0.02075 0.00075 
1568 1 0.00325336 0.0381782 0.021526 0.0005 
2694 1 0.00155285 0.0421596 0.0219935 0.0005 
1309 1 0.00578706 0.0420338 0.0214766 0.0005 
2689 1 0.00736263 0.039299 0.0217881 0.0005 
2152 1 0.000509171 0.0360652 0.0216505 0.0005 
2534 1 0.000935679 0.0395083 0.02188 0.0005 
2692 1 0.00562989 0.0373779 0.0217612 0.0005 
2551 1 0.00551921 0.0364047 0.0220407 0.0005 
2359 1 0.00770896 0.0414455 0.0223519 0.0005 
2554 1 0.00603996 0.0410688 0.0222606 0.00075 
1281 1 0.000749995 0.0371477 0.0223253 0.00075 
2018 1 0.0077067 0.0424335 0.0219076 0.0005 
1000 1 0.00470417 0.0389058 0.022363 0.00125 
1167 1 0.0144163 0.0355237 0.0205 0.0005 
960 1 0.00844847 0.0355994 0.0207593 0.00075 
471 1 0.010316 0.0393361 0.02125 0.00125 
1353 1 0.00974976 0.041752 0.0205 0.0005 
1419 1 0.0124774 0.0377743 0.02075 0.00075 
1019 1 0.0133261 0.0386608 0.0205 0.0005 
1043 1 0.0142638 0.0408565 0.0209999 0.001 
1107 1 0.0105562 0.0364816 0.02075 0.00075 
901 1 0.0110456 0.0411295 0.0207497 0.00075 
1149 1 0.0132775 0.036285 0.02075 0.00075 
1482 1 0.0120227 0.0422673 0.02075 0.00075 
1265 1 0.0138871 0.0394917 0.0205 0.0005 