ITEM: TIMESTEP
650000
ITEM: NUMBER OF ATOMS
2802
ITEM: BOX BOUNDS mm mm mm
-2.4e-06 0.0240024
-7.8e-06 0.0780078
-3e-06 0.030003
ITEM: ATOMS id type x y z radius 
1 1 0.00336202 0.00223227 0.0214999 0.0015 
2 1 0.000499878 0.00155827 0.0204999 0.0005 
3 1 0.00531031 0.00442741 0.0207499 0.00075 
4 1 0.00470651 0.000499971 0.0204999 0.0005 
5 1 0.00422318 0.00374422 0.0205 0.0005 
6 1 0.00270787 0.000499947 0.0205 0.0005 
7 1 0.00455914 0.00595179 0.0204999 0.0005 
8 1 0.000500005 0.000500194 0.0205 0.0005 
9 1 0.000999894 0.00288099 0.021 0.001 
10 1 0.00698313 0.00568686 0.0205 0.0005 
11 1 0.00370719 0.000533835 0.0205 0.0005 
12 1 0.000530842 0.00525885 0.0205 0.0005 
13 1 0.00626072 0.00341142 0.0214776 0.0005 
14 1 0.00499839 0.00166048 0.0205 0.0005 
15 1 0.00126794 0.00630242 0.0204999 0.0005 
16 1 0.00599533 0.00156912 0.0205 0.0005 
17 1 0.000502407 0.00425916 0.0205 0.0005 
18 1 0.00536607 0.00292848 0.02075 0.00075 
19 1 0.00598009 0.000499983 0.0216084 0.0005 
20 1 0.00570641 0.000499976 0.0205 0.0005 
21 1 0.000733041 0.000499992 0.0214724 0.0005 
22 1 0.00693502 0.00235839 0.02075 0.00075 
23 1 0.00160505 0.00103158 0.0207517 0.00075 
24 1 0.00689514 0.000749943 0.0207944 0.00075 
25 1 0.00315322 0.00395154 0.0204999 0.0005 
27 1 0.00266411 0.00482754 0.0205 0.0005 
28 1 0.0022168 0.0036011 0.0204999 0.0005 
29 1 0.00182484 0.00074995 0.0222084 0.00075 
31 1 0.000543788 0.00153113 0.0214986 0.0005 
32 1 0.000499858 0.0062534 0.0211391 0.0005 
33 1 0.00163576 0.00450614 0.0211368 0.00075 
34 1 0.00645705 0.00348622 0.0205 0.0005 
36 1 0.00520255 0.000991191 0.0212159 0.0005 
37 1 0.00297748 0.00447185 0.0214742 0.0005 
38 1 0.00435941 0.000499922 0.0214377 0.0005 
40 1 0.000499995 0.000500074 0.0224449 0.0005 
41 1 0.00757868 0.00340357 0.0205 0.0005 
42 1 0.00790215 0.00142922 0.0204999 0.0005 
43 1 0.00707795 0.00427067 0.0205 0.0005 
1724 1 0.00578366 0.00593511 0.0207502 0.00075 
1770 1 0.00191906 0.00554361 0.0204999 0.0005 
1665 1 0.00127986 0.00567829 0.0213851 0.0005 
1715 1 0.00510902 0.000499987 0.0220995 0.0005 
1926 1 0.00389491 0.0049244 0.0207558 0.00075 
1662 1 0.00663536 0.00482713 0.0218208 0.001 
1735 1 0.00535293 0.00193536 0.0215089 0.0005 
1762 1 0.00647019 0.0015979 0.0219564 0.00075 
2008 1 0.00170651 0.00300074 0.0223177 0.0005 
2110 1 0.00501568 0.00146932 0.0223268 0.0005 
2030 1 0.000499974 0.00234721 0.0223096 0.0005 
2181 1 0.00523233 0.00660881 0.0216475 0.0005 
1610 1 0.00688594 0.00332904 0.0222542 0.0005 
1881 1 0.00738188 0.00253443 0.021904 0.0005 
1977 1 0.00393547 0.000499993 0.0223434 0.0005 
1700 1 0.00746908 0.00663647 0.0219971 0.001 
139 1 0.0071615 0.00667073 0.0205 0.0005 
2188 1 0.00546379 0.00279751 0.0220033 0.0005 
102 1 0.00489249 0.00689448 0.0204998 0.0005 
2207 1 0.000501107 0.0049474 0.0219574 0.0005 
2269 1 0.0022673 0.00413898 0.0224475 0.00075 
1956 1 0.00573023 0.00600182 0.0222677 0.0005 
1682 1 0.00302899 0.00705593 0.0217499 0.00175 
1812 1 0.000749992 0.00380514 0.0224649 0.00075 
2060 1 0.000753487 0.00623141 0.0223818 0.00075 
2292 1 0.00811395 0.00100126 0.0221203 0.001 
44 1 0.00810524 0.00626876 0.0205 0.0005 
1633 1 0.00846417 0.00390168 0.0205 0.0005 
1806 1 0.00802662 0.00504638 0.0207528 0.00075 
99 1 0.00930532 0.00553339 0.0214322 0.0005 
45 1 0.00902233 0.00575843 0.0204999 0.0005 
46 1 0.0091942 0.00467773 0.0205 0.0005 
47 1 0.0116045 0.00421813 0.0204998 0.0005 
48 1 0.0100806 0.00267347 0.0205 0.0005 
49 1 0.0137763 0.00241913 0.02075 0.00075 
50 1 0.0100501 0.00167236 0.0205036 0.0005 
51 1 0.0102711 0.000499967 0.0204999 0.0005 
52 1 0.0125392 0.000500008 0.0205 0.0005 
53 1 0.0109665 0.00121851 0.0205 0.0005 
54 1 0.00827122 0.000499926 0.0205 0.0005 
55 1 0.0108569 0.00522328 0.0204999 0.0005 
56 1 0.0133054 0.00398661 0.0205 0.0005 
57 1 0.00843938 0.00252971 0.0207499 0.00075 
58 1 0.0108947 0.00636044 0.0205 0.0005 
59 1 0.0100245 0.00577722 0.0204998 0.0005 
60 1 0.0125265 0.00568402 0.0215 0.0015 
61 1 0.0101638 0.00107519 0.0216044 0.00075 
62 1 0.00906892 0.00147919 0.0205 0.0005 
63 1 0.00935569 0.00336396 0.0205 0.0005 
64 1 0.0142538 0.00555712 0.0204999 0.0005 
66 1 0.0148827 0.00410645 0.0212498 0.00125 
67 1 0.00927114 0.000499951 0.020509 0.0005 
68 1 0.0116648 0.002638 0.0212492 0.00125 
69 1 0.0137388 0.00074961 0.0207499 0.00075 
70 1 0.0103865 0.0040925 0.0207497 0.00075 
71 1 0.0115887 0.000499981 0.0208108 0.0005 
72 1 0.0128212 0.00156007 0.0204997 0.0005 
75 1 0.0157225 0.00149994 0.0215 0.0015 
65 1 0.0139676 0.00691671 0.0205 0.0005 
2063 1 0.0127575 0.000500026 0.0214833 0.0005 
2015 1 0.0102407 0.00520844 0.0212932 0.0005 
143 1 0.0148672 0.00634687 0.0205 0.0005 
1828 1 0.0133586 0.00159919 0.0223083 0.001 
1644 1 0.0103773 0.00585267 0.0223554 0.00075 
1941 1 0.0118803 0.000947992 0.0216559 0.0005 
2441 1 0.00986119 0.00226946 0.0213887 0.0005 
1608 1 0.0159751 0.0057053 0.0207499 0.00075 
2355 1 0.00885697 0.00595669 0.0222194 0.0005 
2090 1 0.0110458 0.00436794 0.021776 0.0005 
2263 1 0.0111203 0.00705837 0.0218655 0.0005 
2046 1 0.0147304 0.00609896 0.0217387 0.00075 
2268 1 0.011795 0.00401473 0.0223364 0.0005 
2039 1 0.0111909 0.00130716 0.022285 0.0005 
2130 1 0.0128826 0.0032294 0.022359 0.0005 
1623 1 0.016005 0.00526933 0.0219211 0.0005 
74 1 0.0164043 0.00454037 0.0205 0.0005 
76 1 0.0220799 0.000749943 0.02075 0.00075 
77 1 0.0235001 0.00523296 0.0204999 0.0005 
78 1 0.0203661 0.00099993 0.0209999 0.001 
79 1 0.0232497 0.00169705 0.0207496 0.00075 
81 1 0.0206644 0.00270823 0.02075 0.00075 
82 1 0.020535 0.00477614 0.0204999 0.0005 
83 1 0.0187307 0.0015694 0.0207498 0.00075 
84 1 0.0215391 0.00184868 0.0204999 0.0005 
85 1 0.0171361 0.000499953 0.0204998 0.0005 
86 1 0.0235003 0.000499184 0.0204998 0.0005 
87 1 0.0209952 0.00388753 0.0205 0.0005 
88 1 0.0181357 0.000499575 0.0204998 0.0005 
89 1 0.0217156 0.00184875 0.0217434 0.00075 
90 1 0.0209063 0.00594376 0.0207499 0.00075 
91 1 0.0196818 0.00592252 0.0204998 0.0005 
92 1 0.0223783 0.00419959 0.0204998 0.0005 
93 1 0.0218576 0.00302196 0.0205 0.0005 
95 1 0.0235003 0.00423354 0.0204994 0.0005 
97 1 0.0172652 0.00588337 0.0205 0.0005 
182 1 0.0232377 0.00642872 0.02075 0.00075 
1643 1 0.0210885 0.00443676 0.0213445 0.0005 
1663 1 0.0215339 0.00473494 0.0205 0.0005 
1901 1 0.0201016 0.00631971 0.0216649 0.0005 
1650 1 0.0222719 0.00530111 0.0216768 0.001 
2044 1 0.0168922 0.00277983 0.0205 0.0005 
1612 1 0.0229696 0.00325174 0.0215004 0.001 
187 1 0.0220306 0.00678487 0.0205 0.0005 
2221 1 0.0222308 0.000499984 0.0219653 0.0005 
1629 1 0.0185063 0.0041571 0.0222499 0.00225 
1979 1 0.0216398 0.00666111 0.0214638 0.0005 
2364 1 0.0189935 0.000499979 0.0213411 0.0005 
2071 1 0.0178901 0.0010204 0.0218654 0.00075 
2447 1 0.0214792 0.0035053 0.0212894 0.0005 
2462 1 0.0210164 0.00609228 0.0220002 0.0005 
2334 1 0.0192909 0.00126077 0.0223559 0.00075 
94 1 0.0185428 0.00688849 0.0205 0.0005 
96 1 0.0207067 0.0070638 0.0219492 0.0005 
35 1 0.000548098 0.0075907 0.0219702 0.0005 
26 1 0.000753433 0.00741369 0.0207499 0.00075 
100 1 0.00607576 0.00766842 0.0210001 0.001 
101 1 0.00125799 0.00852951 0.0204999 0.0005 
103 1 0.00175599 0.0103425 0.0205 0.0005 
104 1 0.00227358 0.00921959 0.0207497 0.00075 
105 1 0.0071586 0.0119105 0.0205 0.0005 
106 1 0.00344951 0.00887839 0.0204997 0.0005 
107 1 0.00267421 0.0119699 0.0205 0.0005 
108 1 0.00443163 0.0108614 0.0207499 0.00075 
109 1 0.000499982 0.0110638 0.0205 0.0005 
110 1 0.00509462 0.00981631 0.0205 0.0005 
111 1 0.00149633 0.0113937 0.0205 0.0005 
112 1 0.00384797 0.0123196 0.0207499 0.00075 
113 1 0.00586896 0.0102653 0.0213725 0.00075 
114 1 0.00498521 0.0119286 0.021091 0.0005 
116 1 0.00275987 0.0130749 0.0205 0.0005 
118 1 0.000499947 0.0130992 0.0205 0.0005 
119 1 0.00361325 0.0135977 0.0205 0.0005 
122 1 0.00583169 0.0121075 0.0205 0.0005 
124 1 0.00562764 0.0111281 0.0205 0.0005 
125 1 0.00504914 0.0127324 0.0204999 0.0005 
126 1 0.00341338 0.0130667 0.0216529 0.0005 
128 1 0.00719776 0.0133339 0.0205 0.0005 
129 1 0.00599458 0.0130953 0.0204995 0.0005 
130 1 0.00162351 0.0126118 0.0207498 0.00075 
131 1 0.000507839 0.0120739 0.0205 0.0005 
132 1 0.00601114 0.00912417 0.0205 0.0005 
133 1 0.00399039 0.00971916 0.0204999 0.0005 
134 1 0.000749944 0.00964418 0.02075 0.00075 
136 1 0.00160741 0.0097773 0.0216497 0.0005 
137 1 0.00241452 0.0130642 0.0216054 0.0005 
138 1 0.000499721 0.00852836 0.021255 0.0005 
140 1 0.000500035 0.0136184 0.0213546 0.0005 
141 1 0.0077504 0.00811013 0.02075 0.00075 
1822 1 0.00296452 0.0105507 0.02075 0.00075 
154 1 0.00722019 0.0106873 0.02075 0.00075 
1865 1 0.00053936 0.0116435 0.021402 0.0005 
1780 1 0.00465644 0.00867241 0.0207503 0.00075 
222 1 0.00644423 0.0139913 0.0205 0.0005 
1934 1 0.00351842 0.01207 0.0219296 0.0005 
120 1 0.00489187 0.0139468 0.0207499 0.00075 
1893 1 0.00376188 0.0094643 0.021704 0.00075 
1655 1 0.00690484 0.00918041 0.0213742 0.00075 
1805 1 0.00233933 0.0116036 0.0216472 0.00075 
1890 1 0.00115236 0.0107457 0.0211878 0.0005 
1970 1 0.00470667 0.0111399 0.021937 0.0005 
2119 1 0.00141513 0.00879722 0.0215535 0.0005 
1739 1 0.00112707 0.012769 0.0224204 0.001 
2433 1 0.00232666 0.0137459 0.0223317 0.0005 
123 1 0.000500001 0.0141379 0.0205 0.0005 
2342 1 0.00263522 0.012536 0.0224254 0.0005 
2047 1 0.00350236 0.0108488 0.0222197 0.00075 
163 1 0.00838194 0.0118522 0.0207499 0.00075 
183 1 0.0152505 0.00727044 0.0205 0.0005 
148 1 0.00839124 0.0135565 0.0207975 0.00075 
142 1 0.013734 0.00807942 0.0205 0.0005 
144 1 0.0096533 0.0103618 0.0204999 0.0005 
145 1 0.0124873 0.00815638 0.0205 0.0005 
147 1 0.0130561 0.00733388 0.0205 0.0005 
149 1 0.00949552 0.00726704 0.0212499 0.00125 
150 1 0.0114377 0.00752509 0.02075 0.00075 
151 1 0.0115003 0.0090822 0.02075 0.00075 
152 1 0.010319 0.00863955 0.0205 0.0005 
153 1 0.0108751 0.0104457 0.02075 0.00075 
155 1 0.011557 0.0117819 0.0207532 0.00075 
156 1 0.00950621 0.0113605 0.0205 0.0005 
158 1 0.00870203 0.01067 0.0205 0.0005 
159 1 0.0130836 0.00896132 0.0204989 0.0005 
160 1 0.01034 0.0119131 0.0204998 0.0005 
164 1 0.00959564 0.0134029 0.0205 0.0005 
165 1 0.0094722 0.0124106 0.0205 0.0005 
166 1 0.0107711 0.0130593 0.0207504 0.00075 
167 1 0.00920764 0.00882148 0.0204998 0.0005 
168 1 0.0122679 0.0131566 0.0207506 0.00075 
169 1 0.0121899 0.0107346 0.0204999 0.0005 
170 1 0.013705 0.0107286 0.0209998 0.001 
171 1 0.00821926 0.00954451 0.02075 0.00075 
172 1 0.0116363 0.0109003 0.0219908 0.00075 
173 1 0.012781 0.0117993 0.0205 0.0005 
174 1 0.0133644 0.0126114 0.0204999 0.0005 
175 1 0.0092185 0.0108496 0.0213448 0.0005 
176 1 0.00898433 0.0126401 0.0215105 0.0005 
177 1 0.00825492 0.0105975 0.0214455 0.0005 
179 1 0.0125336 0.00979606 0.0204999 0.0005 
180 1 0.0127912 0.012033 0.0217288 0.00075 
184 1 0.0147058 0.00962157 0.0211556 0.0005 
1640 1 0.0110429 0.00832096 0.0219587 0.00075 
1732 1 0.00976309 0.00949517 0.0217192 0.001 
181 1 0.0140304 0.0092842 0.0205 0.0005 
191 1 0.0150136 0.00847201 0.02075 0.00075 
1614 1 0.0101545 0.011831 0.0219858 0.001 
192 1 0.0151087 0.0109331 0.0205 0.0005 
1815 1 0.0151406 0.0104895 0.0213956 0.0005 
325 1 0.0133682 0.013698 0.0205 0.0005 
1676 1 0.0128464 0.0106955 0.0222294 0.0005 
1592 1 0.0152909 0.0131479 0.0220002 0.002 
2095 1 0.0121538 0.00991806 0.0214168 0.0005 
1831 1 0.00836293 0.00849594 0.0217691 0.0005 
1916 1 0.0154769 0.00905593 0.0217535 0.0005 
1929 1 0.014606 0.0107517 0.0221989 0.0005 
201 1 0.015886 0.00969211 0.02075 0.00075 
1775 1 0.0115174 0.0136662 0.0216105 0.0005 
1888 1 0.00806341 0.00961506 0.0222401 0.00075 
2223 1 0.0127227 0.013592 0.0218304 0.0005 
2037 1 0.0113002 0.00963575 0.0218544 0.0005 
1920 1 0.00976656 0.0140622 0.0221648 0.00125 
1793 1 0.0136237 0.0113232 0.0223741 0.0005 
1740 1 0.0160596 0.0108537 0.0212448 0.0005 
80 1 0.0198494 0.00713543 0.0207506 0.00075 
178 1 0.0170403 0.0121798 0.0204998 0.0005 
185 1 0.0235 0.00762471 0.0204999 0.0005 
186 1 0.0169532 0.00758762 0.0214999 0.0015 
188 1 0.0226544 0.00727882 0.0218527 0.00075 
189 1 0.0235 0.0096241 0.0205 0.0005 
190 1 0.0213195 0.00805115 0.0210001 0.001 
193 1 0.0179099 0.0130421 0.0207499 0.00075 
194 1 0.0188183 0.00790965 0.0205 0.0005 
196 1 0.0202965 0.00916364 0.0214734 0.0005 
197 1 0.0187771 0.0093947 0.0209999 0.001 
198 1 0.0163545 0.0114522 0.0204999 0.0005 
199 1 0.0173685 0.00926926 0.0205 0.0005 
200 1 0.0230001 0.0109359 0.021028 0.001 
202 1 0.020496 0.00927584 0.0205 0.0005 
203 1 0.0171642 0.0104771 0.0207496 0.00075 
204 1 0.0177966 0.0115258 0.0204999 0.0005 
205 1 0.0201187 0.0129467 0.0204999 0.0005 
206 1 0.0213001 0.0112449 0.02075 0.00075 
207 1 0.0234949 0.0122553 0.0205 0.0005 
208 1 0.0234855 0.00862438 0.0205 0.0005 
209 1 0.0198484 0.00834717 0.0210709 0.0005 
210 1 0.0221995 0.0124668 0.0207499 0.00075 
211 1 0.0205318 0.0102861 0.0205 0.0005 
212 1 0.022447 0.0139462 0.0207501 0.00075 
213 1 0.0209718 0.0124248 0.0205 0.0005 
214 1 0.0235 0.0132557 0.0205 0.0005 
215 1 0.0213684 0.0133663 0.0204999 0.0005 
216 1 0.0217591 0.00972616 0.0207499 0.00075 
217 1 0.0171879 0.0115989 0.0213004 0.0005 
218 1 0.0210849 0.0124614 0.0217536 0.00075 
219 1 0.0231376 0.0132325 0.0215267 0.0005 
221 1 0.0234886 0.0122725 0.0215255 0.0005 
324 1 0.0191326 0.0131124 0.0205 0.0005 
1626 1 0.0193773 0.0115502 0.0212499 0.00125 
1691 1 0.0229137 0.0091709 0.02153 0.00075 
1684 1 0.0218913 0.0115121 0.0218578 0.0005 
1915 1 0.0235001 0.00807574 0.0213923 0.0005 
220 1 0.0201099 0.0132631 0.0214487 0.0005 
2005 1 0.0208185 0.0102704 0.0217836 0.00075 
1851 1 0.019302 0.00753908 0.0223633 0.001 
1835 1 0.0178339 0.0122438 0.0217088 0.0005 
2211 1 0.0182815 0.0135325 0.021838 0.0005 
1968 1 0.0191675 0.0135898 0.0213779 0.0005 
328 1 0.0190079 0.0141073 0.0205 0.0005 
2149 1 0.0195748 0.0101118 0.0222271 0.0005 
326 1 0.0205043 0.0138692 0.0204999 0.0005 
330 1 0.0171052 0.0139964 0.0205 0.0005 
2244 1 0.0234998 0.0110525 0.0224376 0.0005 
329 1 0.0175548 0.0140544 0.0213914 0.0005 
2289 1 0.0210247 0.0113654 0.0223518 0.0005 
332 1 0.0235 0.0141572 0.0214102 0.0005 
2213 1 0.0226858 0.0122534 0.0225078 0.00075 
117 1 0.0037531 0.0146332 0.0205001 0.0005 
121 1 0.00190207 0.01434 0.0209999 0.001 
223 1 0.00445324 0.0153472 0.0205 0.0005 
224 1 0.00289589 0.0153485 0.0205 0.0005 
225 1 0.00222881 0.0162752 0.0205 0.0005 
226 1 0.00602525 0.0155167 0.0212501 0.00125 
227 1 0.00143029 0.0156732 0.0205 0.0005 
228 1 0.000516478 0.0151378 0.0205 0.0005 
229 1 0.00050003 0.0161378 0.0205 0.0005 
230 1 0.00453003 0.0173159 0.0205 0.0005 
231 1 0.0028307 0.0174999 0.0204999 0.0005 
232 1 0.00124986 0.01753 0.0212498 0.00125 
233 1 0.0065347 0.0171172 0.0204997 0.0005 
234 1 0.00537664 0.0182207 0.02075 0.00075 
235 1 0.00050007 0.0189617 0.0205 0.0005 
236 1 0.00344757 0.0164419 0.02075 0.00075 
237 1 0.00547885 0.0170002 0.0204998 0.0005 
238 1 0.00429411 0.0157771 0.0213888 0.0005 
239 1 0.00466668 0.0163253 0.0204999 0.0005 
240 1 0.00263173 0.0184798 0.0205 0.0005 
241 1 0.000835495 0.015646 0.0213036 0.0005 
242 1 0.000507831 0.0200423 0.0214967 0.0005 
243 1 0.00351488 0.0189489 0.0205 0.0005 
244 1 0.00443333 0.0193623 0.0205 0.0005 
245 1 0.00598429 0.0172644 0.021321 0.0005 
246 1 0.00330597 0.0199268 0.0205 0.0005 
247 1 0.00189314 0.0196858 0.0209999 0.001 
248 1 0.00457035 0.0189248 0.0213954 0.0005 
249 1 0.00718545 0.0200773 0.0205 0.0005 
250 1 0.00378891 0.0179872 0.0205 0.0005 
256 1 0.00732454 0.0185023 0.0212498 0.00125 
255 1 0.00767907 0.0163972 0.0222376 0.00075 
392 1 0.00575614 0.0196718 0.0207498 0.00075 
443 1 0.00456262 0.0205803 0.02075 0.00075 
1846 1 0.0035021 0.0195148 0.0216665 0.00075 
393 1 0.00308988 0.0209031 0.0205 0.0005 
1615 1 0.00501521 0.0170169 0.0213856 0.0005 
259 1 0.00763872 0.0165876 0.02075 0.00075 
395 1 0.000503735 0.0199617 0.0205 0.0005 
1616 1 0.00378117 0.0144808 0.0219922 0.001 
1802 1 0.00512387 0.0209437 0.0218061 0.0005 
411 1 0.000499989 0.0209722 0.0205 0.0005 
390 1 0.00674256 0.020377 0.0216326 0.00075 
444 1 0.00356403 0.0207496 0.0214825 0.0005 
1636 1 0.00244879 0.02087 0.0221624 0.00075 
432 1 0.0058548 0.0209067 0.0209165 0.0005 
261 1 0.00759865 0.0153637 0.0204999 0.0005 
1804 1 0.00315118 0.0180595 0.0215725 0.00075 
2055 1 0.00439119 0.017943 0.021467 0.0005 
1908 1 0.00411102 0.0170086 0.0222485 0.00075 
391 1 0.00718799 0.0210773 0.0205 0.0005 
1784 1 0.00544854 0.0168205 0.0222655 0.0005 
146 1 0.00744877 0.0143484 0.0205 0.0005 
2106 1 0.000736735 0.0155518 0.0222942 0.0005 
2329 1 0.000976444 0.0210091 0.0213784 0.0005 
1937 1 0.0055112 0.0194054 0.0224618 0.001 
1766 1 0.00737029 0.0151842 0.0223192 0.0005 
2215 1 0.00235567 0.018835 0.0221454 0.0005 
2087 1 0.00576622 0.0180274 0.0219285 0.0005 
1971 1 0.00262515 0.0160852 0.0222907 0.001 
302 1 0.00797597 0.015504 0.0214151 0.0005 
2561 1 0.00405601 0.018701 0.0224417 0.0005 
161 1 0.00931667 0.0143631 0.0205 0.0005 
1697 1 0.00813925 0.0146591 0.0219243 0.0005 
1855 1 0.0110957 0.0143956 0.0210718 0.0005 
162 1 0.0103015 0.0141902 0.0204999 0.0005 
252 1 0.0119654 0.0143432 0.0205 0.0005 
254 1 0.0129076 0.0148048 0.0205 0.0005 
257 1 0.012111 0.0148913 0.0216139 0.00075 
258 1 0.0113922 0.0151626 0.0205 0.0005 
260 1 0.0131878 0.014322 0.0213296 0.0005 
262 1 0.0138779 0.0145631 0.0205 0.0005 
263 1 0.0122941 0.0155945 0.0205 0.0005 
264 1 0.0101453 0.0185281 0.0205 0.0005 
265 1 0.00937717 0.0191686 0.0205 0.0005 
267 1 0.0137979 0.0161423 0.0212498 0.00125 
268 1 0.0113178 0.0181833 0.0205 0.0005 
269 1 0.00995888 0.0151296 0.0205 0.0005 
270 1 0.0121817 0.0190566 0.0207499 0.00075 
271 1 0.0122829 0.0165945 0.0204999 0.0005 
272 1 0.0151352 0.0188803 0.0204999 0.0005 
273 1 0.0103807 0.0160363 0.0204999 0.0005 
274 1 0.010955 0.0191151 0.0205 0.0005 
275 1 0.0101666 0.0197823 0.0205 0.0005 
276 1 0.0132707 0.0201294 0.0215537 0.0005 
277 1 0.0114084 0.0200063 0.0205 0.0005 
278 1 0.0124595 0.0206377 0.0207499 0.00075 
280 1 0.0114853 0.0171974 0.0205 0.0005 
281 1 0.0124753 0.017642 0.0211542 0.00075 
282 1 0.0132902 0.0196841 0.0205 0.0005 
283 1 0.0135391 0.0177022 0.0204999 0.0005 
284 1 0.01335 0.0186856 0.0205 0.0005 
285 1 0.0142693 0.0193851 0.0205 0.0005 
286 1 0.0142693 0.0184312 0.0208001 0.0005 
287 1 0.0131426 0.0189324 0.021895 0.00075 
288 1 0.0119586 0.0160924 0.0213029 0.0005 
289 1 0.0150789 0.019972 0.0205 0.0005 
290 1 0.0145657 0.0175245 0.0205 0.0005 
291 1 0.00918354 0.0181876 0.0205 0.0005 
292 1 0.0104966 0.0170483 0.0205 0.0005 
293 1 0.0148254 0.0205805 0.0214372 0.0005 
294 1 0.0138912 0.0204779 0.0205954 0.0005 
295 1 0.00850708 0.0174512 0.0205 0.0005 
296 1 0.0155479 0.0177127 0.0204999 0.0005 
297 1 0.00897362 0.015857 0.0207499 0.00075 
298 1 0.0110577 0.0175861 0.021316 0.0005 
300 1 0.0109407 0.0165934 0.0213499 0.0005 
301 1 0.0113688 0.0161892 0.0205 0.0005 
303 1 0.0122445 0.0197912 0.0217593 0.0005 
304 1 0.00989169 0.0166048 0.0211613 0.0005 
305 1 0.0136615 0.0178733 0.0214775 0.0005 
306 1 0.0150153 0.0151304 0.0205 0.0005 
307 1 0.00996766 0.0156607 0.0214819 0.0005 
308 1 0.011756 0.0168538 0.0219207 0.0005 
309 1 0.0123707 0.0207556 0.0219911 0.0005 
310 1 0.012167 0.0159612 0.0222779 0.0005 
311 1 0.00948305 0.0172335 0.0204999 0.0005 
312 1 0.0100908 0.0177393 0.0211122 0.0005 
314 1 0.0111719 0.0159773 0.0221788 0.0005 
315 1 0.0103984 0.019266 0.0218891 0.001 
316 1 0.0152548 0.0167567 0.0205 0.0005 
317 1 0.0159434 0.0194692 0.0205 0.0005 
319 1 0.0109454 0.0155957 0.0212827 0.0005 
320 1 0.0157025 0.0158627 0.0204995 0.0005 
321 1 0.00910125 0.018712 0.0213474 0.0005 
322 1 0.014203 0.0197984 0.0214081 0.0005 
323 1 0.00863801 0.0168284 0.0214613 0.0005 
331 1 0.0158391 0.0164897 0.0212667 0.0005 
1603 1 0.00840355 0.0147705 0.0205 0.0005 
1637 1 0.00911004 0.0177055 0.021373 0.0005 
1721 1 0.015444 0.0155747 0.021421 0.0005 
461 1 0.00869348 0.0205942 0.0212499 0.00125 
318 1 0.0115804 0.0183843 0.0216152 0.0005 
313 1 0.0114602 0.0203367 0.0214423 0.0005 
279 1 0.0147799 0.0209263 0.0205 0.0005 
2191 1 0.0133939 0.0147583 0.0222417 0.0005 
465 1 0.010601 0.0209273 0.0207499 0.00075 
1997 1 0.0133939 0.0174503 0.0223432 0.0005 
458 1 0.0102919 0.0207685 0.0219513 0.0005 
2002 1 0.00880653 0.0182664 0.0221928 0.0005 
1886 1 0.0113811 0.0204793 0.0224289 0.0005 
2180 1 0.0119631 0.0190008 0.0223032 0.0005 
2218 1 0.0147996 0.0207346 0.0224281 0.0005 
2457 1 0.017589 0.0142177 0.0223775 0.0005 
1729 1 0.0222184 0.0164241 0.0219974 0.0005 
327 1 0.0235001 0.0145712 0.0204999 0.0005 
333 1 0.0180417 0.014394 0.0205 0.0005 
334 1 0.0215411 0.0147703 0.0205 0.0005 
336 1 0.0225782 0.0151672 0.0205 0.0005 
337 1 0.0170409 0.0154086 0.0210017 0.001 
338 1 0.0184549 0.0154402 0.0205005 0.0005 
339 1 0.0193873 0.0150486 0.0205 0.0005 
340 1 0.0186352 0.017212 0.021242 0.0005 
341 1 0.0181017 0.0163757 0.0205 0.0005 
342 1 0.0173749 0.0182724 0.0205 0.0005 
343 1 0.0222508 0.016352 0.0207499 0.00075 
344 1 0.0179845 0.0173732 0.0205 0.0005 
345 1 0.0193308 0.0162974 0.02075 0.00075 
346 1 0.0235 0.017571 0.0205 0.0005 
347 1 0.0223086 0.0178545 0.0207499 0.00075 
348 1 0.0212064 0.0157126 0.0204999 0.0005 
349 1 0.0201946 0.0175368 0.0204998 0.0005 
350 1 0.0183752 0.0182937 0.0205 0.0005 
351 1 0.0191958 0.0175788 0.0204999 0.0005 
352 1 0.0235001 0.0185709 0.0204999 0.0005 
353 1 0.0199544 0.0176237 0.0217234 0.00075 
354 1 0.0167858 0.0171215 0.02075 0.00075 
355 1 0.0209439 0.0185051 0.0207498 0.00075 
356 1 0.0212113 0.01731 0.0204999 0.0005 
357 1 0.0197208 0.0184303 0.0205 0.0005 
358 1 0.0235 0.0155711 0.0205 0.0005 
359 1 0.0204043 0.0148642 0.0204999 0.0005 
360 1 0.0189628 0.0182646 0.0213086 0.0005 
361 1 0.0203569 0.0198862 0.02075 0.00075 
362 1 0.0189431 0.0193843 0.02075 0.00075 
363 1 0.0235 0.0165711 0.0205 0.0005 
364 1 0.0224782 0.0199691 0.0215 0.0015 
366 1 0.0205296 0.0166471 0.0208091 0.0005 
367 1 0.0232501 0.0170402 0.0216317 0.00075 
368 1 0.0177908 0.0189984 0.0210476 0.0005 
369 1 0.0235001 0.0182509 0.0214473 0.0005 
370 1 0.0198636 0.0188358 0.021403 0.0005 
371 1 0.0176643 0.0178118 0.0213396 0.0005 
373 1 0.01803 0.0202372 0.0212066 0.0005 
374 1 0.0174578 0.0198209 0.0205 0.0005 
376 1 0.0163747 0.0182752 0.0205 0.0005 
377 1 0.0230743 0.0155038 0.0216732 0.00075 
378 1 0.0206627 0.0208076 0.0215373 0.0005 
379 1 0.0168242 0.0191125 0.0208111 0.0005 
380 1 0.0213413 0.0169055 0.021405 0.0005 
381 1 0.020725 0.019073 0.0218522 0.0005 
382 1 0.0234989 0.0185084 0.0224136 0.0005 
383 1 0.0203789 0.0156914 0.021061 0.0005 
385 1 0.0177815 0.0167109 0.0213859 0.0005 
386 1 0.0198056 0.0142975 0.0210724 0.0005 
388 1 0.0200708 0.0163404 0.0217566 0.0005 
1830 1 0.0215381 0.0179944 0.0220293 0.00075 
1972 1 0.0188155 0.0150564 0.021905 0.001 
526 1 0.018982 0.0209063 0.02075 0.00075 
375 1 0.0164938 0.0210742 0.0212499 0.00125 
1906 1 0.0171291 0.016543 0.022125 0.0005 
2136 1 0.0234913 0.0143299 0.0223951 0.0005 
527 1 0.021266 0.0212083 0.0205 0.0005 
2036 1 0.0161199 0.0157307 0.0224603 0.00075 
394 1 0.00525642 0.0215915 0.0205 0.0005 
396 1 0.00197764 0.0214157 0.02075 0.00075 
397 1 0.00521003 0.0252544 0.0205 0.0005 
398 1 0.00585333 0.024211 0.02075 0.00075 
399 1 0.00452579 0.0228025 0.021 0.001 
400 1 0.000756301 0.0222864 0.0207499 0.00075 
401 1 0.000985229 0.0253181 0.0213584 0.0005 
402 1 0.000501796 0.024484 0.0205 0.0005 
403 1 0.000499965 0.025484 0.0204999 0.0005 
404 1 0.00783863 0.0219256 0.0205 0.0005 
405 1 0.00246188 0.0249906 0.0205 0.0005 
406 1 0.00527597 0.0262522 0.0205 0.0005 
407 1 0.00334154 0.0240801 0.0207498 0.00075 
408 1 0.00049988 0.023484 0.0204999 0.0005 
409 1 0.00673493 0.0254245 0.02075 0.00075 
410 1 0.00383744 0.0215672 0.0205 0.0005 
412 1 0.00167825 0.0239801 0.021284 0.001 
413 1 0.00640442 0.0220176 0.0207532 0.00075 
415 1 0.0066865 0.0266542 0.0205 0.0005 
416 1 0.00233642 0.0261141 0.0210354 0.00075 
417 1 0.00762499 0.0263085 0.0205 0.0005 
418 1 0.00428452 0.0261217 0.0204999 0.0005 
419 1 0.000499968 0.0246519 0.0219246 0.0005 
420 1 0.00681082 0.0276465 0.0205 0.0005 
421 1 0.00462865 0.0242128 0.0204999 0.0005 
422 1 0.000500122 0.023123 0.0216426 0.0005 
423 1 0.000499789 0.0261959 0.0212024 0.0005 
424 1 0.00149495 0.0252458 0.0205 0.0005 
426 1 0.00274849 0.0227024 0.02075 0.00075 
427 1 0.00702111 0.0263274 0.021913 0.00075 
428 1 0.00121091 0.0262049 0.0204998 0.0005 
429 1 0.00421704 0.0251241 0.0204999 0.0005 
430 1 0.00330348 0.0255307 0.0205 0.0005 
431 1 0.00600418 0.0263722 0.0211748 0.0005 
433 1 0.00144476 0.0272365 0.0205 0.0005 
434 1 0.00353139 0.0270311 0.0213618 0.0005 
435 1 0.00337956 0.0265472 0.0205 0.0005 
436 1 0.00608471 0.0231046 0.0217361 0.00075 
437 1 0.000500012 0.0271599 0.021468 0.0005 
438 1 0.000499988 0.0269088 0.0205 0.0005 
439 1 0.00132708 0.0262328 0.0221386 0.00075 
440 1 0.00447371 0.0269428 0.0210384 0.0005 
442 1 0.00660154 0.0274414 0.0214585 0.0005 
445 1 0.00557209 0.0274655 0.0207499 0.00075 
446 1 0.00658429 0.0232284 0.0205 0.0005 
447 1 0.000500041 0.0278333 0.0224098 0.0005 
450 1 0.00340369 0.0275493 0.0205 0.0005 
453 1 0.00707844 0.0242112 0.0205 0.0005 
454 1 0.00438871 0.0277811 0.0205 0.0005 
455 1 0.00745942 0.027124 0.0210545 0.0005 
456 1 0.00319083 0.02165 0.0212591 0.0005 
594 1 0.00244473 0.0272384 0.0204999 0.0005 
629 1 0.00249112 0.0268421 0.0220396 0.0005 
1594 1 0.00774339 0.0243571 0.0221123 0.00125 
522 1 0.00754496 0.0229509 0.0205 0.0005 
463 1 0.00791232 0.0250209 0.0205 0.0005 
1824 1 0.00550849 0.0218452 0.0216076 0.0005 
615 1 0.00275011 0.0276554 0.0213559 0.0005 
1857 1 0.00145146 0.0219935 0.0217466 0.0005 
1939 1 0.00575233 0.0274093 0.0219856 0.0005 
1917 1 0.00428457 0.0214504 0.0216033 0.0005 
605 1 0.00460199 0.0279286 0.021796 0.00075 
606 1 0.00158387 0.0276835 0.0218049 0.00075 
579 1 0.00778028 0.0278918 0.0205 0.0005 
2076 1 0.00210617 0.0252669 0.0219251 0.0005 
2088 1 0.002452 0.0220654 0.0217962 0.0005 
2129 1 0.00347506 0.0216349 0.0222177 0.0005 
589 1 0.00195119 0.0281082 0.0205 0.0005 
1819 1 0.00559849 0.0282714 0.0224682 0.0005 
451 1 0.000749973 0.0283481 0.0207499 0.00075 
448 1 0.00849911 0.0241555 0.0205 0.0005 
457 1 0.0148907 0.0215096 0.0218014 0.0005 
459 1 0.0136535 0.0214446 0.0205 0.0005 
460 1 0.0140204 0.0225577 0.021755 0.0005 
462 1 0.0100093 0.0217163 0.0215179 0.0005 
464 1 0.00833946 0.0270332 0.0205 0.0005 
466 1 0.00895259 0.0228152 0.0209999 0.001 
467 1 0.00929303 0.0254058 0.0207499 0.00075 
468 1 0.0103849 0.02366 0.0215451 0.00075 
469 1 0.00929229 0.0266586 0.0205 0.0005 
470 1 0.00949907 0.0241196 0.0205 0.0005 
471 1 0.0128319 0.0242991 0.0205 0.0005 
473 1 0.0129713 0.0252893 0.0205 0.0005 
474 1 0.0140138 0.0239988 0.0205 0.0005 
475 1 0.0118111 0.0230231 0.0204999 0.0005 
476 1 0.0126905 0.0218404 0.0204999 0.0005 
477 1 0.0111781 0.0248681 0.021045 0.0005 
478 1 0.0110696 0.0236938 0.0204999 0.0005 
479 1 0.0131738 0.0216455 0.0216366 0.00075 
480 1 0.0112957 0.0263238 0.0205 0.0005 
481 1 0.0123444 0.0248846 0.0215028 0.00075 
482 1 0.0139646 0.0250258 0.0212117 0.00075 
483 1 0.0119127 0.0255287 0.0205 0.0005 
484 1 0.0118311 0.0243422 0.0205 0.0005 
485 1 0.0122252 0.0236765 0.0211336 0.0005 
486 1 0.0149622 0.0252717 0.0204999 0.0005 
487 1 0.0106981 0.0224242 0.02075 0.00075 
488 1 0.0152303 0.0232914 0.0205 0.0005 
489 1 0.0104365 0.0244679 0.0205 0.0005 
490 1 0.0133503 0.0228793 0.0207499 0.00075 
491 1 0.0141456 0.0260372 0.0204999 0.0005 
492 1 0.0105817 0.0254573 0.0205 0.0005 
493 1 0.0103086 0.0272901 0.0205 0.0005 
494 1 0.0141998 0.0260377 0.0219073 0.0005 
495 1 0.012796 0.0268607 0.0212499 0.00125 
496 1 0.0150588 0.0242765 0.0205 0.0005 
497 1 0.0148816 0.0267398 0.0204999 0.0005 
498 1 0.0148813 0.0260036 0.0211763 0.0005 
499 1 0.0145295 0.0268867 0.0214878 0.0005 
501 1 0.0146583 0.022145 0.0207499 0.00075 
502 1 0.0144489 0.0233456 0.0211216 0.0005 
503 1 0.0156708 0.0248602 0.0210734 0.0005 
504 1 0.0122607 0.0224392 0.0211757 0.0005 
505 1 0.0101967 0.0263367 0.0207799 0.0005 
506 1 0.015512 0.0273568 0.02119 0.0005 
507 1 0.0107924 0.0275174 0.0213461 0.0005 
508 1 0.0131577 0.0239438 0.0213761 0.0005 
509 1 0.0115024 0.0230668 0.021459 0.0005 
510 1 0.00884971 0.0264341 0.0213681 0.0005 
511 1 0.0154173 0.0265596 0.0218114 0.0005 
512 1 0.00936573 0.0243779 0.0214571 0.0005 
513 1 0.00815617 0.0257512 0.0211381 0.0005 
514 1 0.0116956 0.0217122 0.0205 0.0005 
516 1 0.0154375 0.0228642 0.0221419 0.001 
517 1 0.0113182 0.0274308 0.0205 0.0005 
518 1 0.00937754 0.027655 0.0205 0.0005 
519 1 0.0144726 0.0278941 0.02075 0.00075 
520 1 0.0150522 0.0275938 0.0220459 0.0005 
523 1 0.0150231 0.024228 0.0214985 0.0005 
1723 1 0.011502 0.021616 0.0217315 0.00075 
1708 1 0.00858988 0.027858 0.0217622 0.001 
1749 1 0.0141376 0.0217022 0.0224305 0.0005 
1978 1 0.00823987 0.0264536 0.0221604 0.0005 
525 1 0.0158803 0.0225315 0.0205 0.0005 
1837 1 0.0151986 0.0252906 0.0221526 0.00075 
521 1 0.00996693 0.028062 0.0211978 0.0005 
1895 1 0.0140601 0.0239391 0.0222411 0.00075 
651 1 0.0106812 0.0282181 0.0205 0.0005 
1704 1 0.00907858 0.0220061 0.0222589 0.0005 
2406 1 0.0100155 0.0225715 0.0220361 0.0005 
2177 1 0.00935494 0.0235057 0.0222692 0.0005 
656 1 0.0133349 0.028347 0.0204998 0.0005 
500 1 0.0160269 0.0263062 0.02075 0.00075 
515 1 0.0164403 0.025141 0.0204999 0.0005 
535 1 0.0162055 0.0275858 0.0205 0.0005 
528 1 0.0198712 0.0214424 0.0214459 0.0005 
529 1 0.0188177 0.0217665 0.0216419 0.0005 
530 1 0.0169297 0.0253476 0.0219026 0.001 
532 1 0.0201464 0.0216166 0.0205 0.0005 
533 1 0.0207989 0.021759 0.0212443 0.0005 
534 1 0.0234978 0.0216941 0.0214452 0.0005 
536 1 0.0235 0.0213678 0.0205 0.0005 
538 1 0.0221362 0.0223944 0.0209999 0.001 
539 1 0.0200814 0.0247329 0.0205 0.0005 
540 1 0.0163414 0.02385 0.02075 0.00075 
541 1 0.0195777 0.0258555 0.0204999 0.0005 
542 1 0.0180631 0.0222164 0.02075 0.00075 
543 1 0.0217884 0.0237677 0.0205 0.0005 
544 1 0.0235 0.0260927 0.0205 0.0005 
545 1 0.0183715 0.0256437 0.0207498 0.00075 
546 1 0.0232425 0.0237376 0.02075 0.00075 
547 1 0.0234997 0.0227707 0.0214992 0.0005 