ITEM: TIMESTEP
290000
ITEM: NUMBER OF ATOMS
2496
ITEM: BOX BOUNDS mm mm mm
-2.4e-06 0.0240024
-7.8e-06 0.0780078
-3e-06 0.030003
ITEM: ATOMS id type x y z radius 
324 1 0.00794799 0.00401592 0.0219996 0.002 
291 1 0.00285541 0.00150615 0.0214995 0.0015 
368 1 0.000499989 0.00149922 0.0205 0.0005 
784 1 0.00556961 0.00337038 0.02075 0.00075 
32 1 0.005266 0.000500007 0.0205 0.0005 
241 1 0.0047291 0.00246954 0.0205 0.0005 
815 1 0.0012509 0.00215961 0.0205 0.0005 
448 1 0.00384238 0.00293189 0.0205 0.0005 
300 1 0.000539276 0.000500002 0.0205 0.0005 
442 1 0.00103659 0.00356225 0.0209999 0.001 
816 1 0.00599214 0.00493495 0.0205 0.0005 
710 1 0.00426577 0.000500233 0.0205 0.0005 
527 1 0.000499999 0.00487073 0.0205 0.0005 
256 1 0.000756088 0.0061569 0.0205 0.0005 
870 1 0.00771483 0.00600331 0.0204999 0.0005 
100 1 0.0048226 0.00267708 0.0214737 0.0005 
153 1 0.00509227 0.00153731 0.0205 0.0005 
486 1 0.00361152 0.00510172 0.0222497 0.00225 
722 1 0.00146152 0.00514645 0.0205 0.0005 
864 1 0.00476081 0.000953887 0.0212414 0.0005 
503 1 0.000500018 0.00487071 0.0215 0.0005 
561 1 0.00627546 0.0018611 0.02075 0.00075 
501 1 0.00576547 0.000525851 0.0213666 0.0005 
64 1 0.00634215 0.00634325 0.0209998 0.001 
954 1 0.00626617 0.00049998 0.0205 0.0005 
75 1 0.00174468 0.00690875 0.0207499 0.00075 
390 1 0.000499994 0.00586769 0.0214223 0.0005 
887 1 0.00682572 0.00664589 0.0223973 0.0005 
380 1 0.00485104 0.00682394 0.0205 0.0005 
587 1 0.000499975 0.00397083 0.0223397 0.0005 
370 1 0.00743115 0.000877825 0.0207499 0.00075 
28 1 0.000749514 0.00074982 0.02173 0.00075 
842 1 0.0062624 0.00581845 0.0224027 0.0005 
220 1 0.00727377 0.000749943 0.022236 0.00075 
1070 1 0.00795417 0.00676292 0.021868 0.00075 
1492 1 0.0005 0.00495852 0.0224961 0.0005 
307 1 0.00788093 0.00201693 0.0204999 0.0005 
1195 1 0.008259 0.00159351 0.0213742 0.0005 
121 1 0.00871445 0.00602768 0.0205 0.0005 
228 1 0.00944647 0.00534651 0.0205 0.0005 
490 1 0.0099826 0.00450247 0.0205 0.0005 
199 1 0.0116918 0.00318584 0.0204998 0.0005 
395 1 0.0108384 0.00266492 0.0204999 0.0005 
474 1 0.0139522 0.00174197 0.0207498 0.00075 
282 1 0.0104154 0.00130417 0.0204999 0.0005 
590 1 0.00981804 0.000499937 0.0204999 0.0005 
176 1 0.0133836 0.00050036 0.0205 0.0005 
289 1 0.011009 0.000499755 0.0204999 0.0005 
362 1 0.0088181 0.000500001 0.0204999 0.0005 
783 1 0.0108128 0.00391109 0.0204998 0.0005 
51 1 0.0132581 0.00295137 0.0205 0.0005 
233 1 0.00967594 0.00228012 0.0207499 0.00075 
217 1 0.0109228 0.00495479 0.0205 0.0005 
549 1 0.0105692 0.00448611 0.0213097 0.0005 
126 1 0.0126274 0.00464318 0.0214996 0.0015 
676 1 0.0102727 0.000776619 0.0216308 0.00075 
209 1 0.013857 0.00586542 0.0205 0.0005 
730 1 0.00873477 0.00149648 0.0205 0.0005 
764 1 0.0105154 0.00640095 0.0213993 0.00125 
311 1 0.0147518 0.00635272 0.0216474 0.001 
763 1 0.00988409 0.00350738 0.0205 0.0005 
66 1 0.0143554 0.00477221 0.0205 0.0005 
61 1 0.0150981 0.00544216 0.0205 0.0005 
108 1 0.0150384 0.00334499 0.0212497 0.00125 
89 1 0.00841861 0.000499919 0.0214165 0.0005 
155 1 0.0120321 0.00166958 0.0213041 0.00125 
178 1 0.0150771 0.000749914 0.0207499 0.00075 
364 1 0.0108022 0.00328886 0.0215836 0.00075 
895 1 0.011257 0.000499934 0.0223498 0.0005 
598 1 0.0129492 0.000499975 0.0222278 0.0005 
171 1 0.0129481 0.00673951 0.0207496 0.00075 
581 1 0.0122806 0.0066485 0.0224589 0.00075 
161 1 0.02325 0.000749982 0.0207499 0.00075 
159 1 0.0226636 0.00332829 0.0205 0.0005 
204 1 0.0234971 0.00470837 0.0205 0.0005 
219 1 0.0214918 0.000999748 0.0209999 0.001 
333 1 0.0232501 0.0039091 0.0214393 0.00075 
142 1 0.02325 0.00225135 0.02075 0.00075 
200 1 0.0204773 0.00240333 0.0207498 0.00075 
340 1 0.0218305 0.00430322 0.0207499 0.00075 
452 1 0.0235 0.00572911 0.0205 0.0005 
518 1 0.0192408 0.000759265 0.02075 0.00075 
185 1 0.016668 0.00524271 0.0212498 0.00125 
31 1 0.0170614 0.00149972 0.0214999 0.0015 
123 1 0.0228807 0.00100041 0.022442 0.001 
273 1 0.0218953 0.00283127 0.021694 0.001 
113 1 0.0168635 0.00325222 0.0205 0.0005 
544 1 0.01865 0.00410985 0.0210018 0.001 
577 1 0.0232501 0.00539128 0.0216772 0.00075 
652 1 0.0183871 0.00545822 0.0216106 0.0005 
290 1 0.0189775 0.00240947 0.0207499 0.00075 
281 1 0.0202457 0.00363376 0.0215756 0.00075 
190 1 0.0176053 0.00693837 0.02075 0.00075 
57 1 0.0204074 0.00587642 0.0214999 0.0015 
143 1 0.0226272 0.00523351 0.0205 0.0005 
853 1 0.0186249 0.00552322 0.0205 0.0005 
106 1 0.0221155 0.00488613 0.0218182 0.0005 
1012 1 0.018368 0.00667531 0.0220144 0.00075 
109 1 0.0187849 0.00651044 0.0205 0.0005 
6 1 0.0226417 0.00688621 0.021 0.001 
998 1 0.000749953 0.0071026 0.0218557 0.00075 
274 1 0.00756596 0.00709863 0.0205 0.0005 
1359 1 0.00291398 0.00727304 0.0205 0.0005 
588 1 0.00391196 0.00720963 0.0205 0.0005 
360 1 0.00598253 0.011912 0.0205 0.0005 
154 1 0.00466651 0.00819199 0.02075 0.00075 
13 1 0.000517063 0.00712791 0.0205 0.0005 
879 1 0.0057554 0.00762804 0.0204978 0.0005 
137 1 0.000584986 0.00814179 0.0205 0.0005 
44 1 0.00492652 0.00966926 0.0207498 0.00075 
401 1 0.00612272 0.0111569 0.0222112 0.00125 
1166 1 0.00578571 0.00784021 0.0217269 0.00075 
1234 1 0.00574888 0.00907545 0.0214797 0.0005 
323 1 0.0024778 0.0092456 0.0220391 0.002 
820 1 0.000503226 0.00930873 0.0204999 0.0005 
1067 1 0.00757725 0.0123537 0.0205 0.0005 
713 1 0.00236041 0.0112239 0.0205 0.0005 
881 1 0.000500002 0.0103087 0.0205 0.0005 
943 1 0.00337809 0.0112264 0.0205 0.0005 
673 1 0.00473622 0.0111569 0.0207499 0.00075 
174 1 0.0010004 0.0116484 0.0209999 0.001 
447 1 0.00578709 0.00868641 0.0205 0.0005 
737 1 0.00548296 0.0127827 0.0205 0.0005 
646 1 0.00137531 0.0138676 0.0205 0.0005 
508 1 0.000504007 0.013328 0.0205 0.0005 
872 1 0.00748516 0.0110658 0.0207499 0.00075 
439 1 0.0067866 0.0137279 0.0212499 0.00125 
891 1 0.00675307 0.00769639 0.0204999 0.0005 
427 1 0.00453902 0.00766333 0.0218754 0.0005 
1190 1 0.00492239 0.008736 0.0219277 0.0005 
479 1 0.000500942 0.0129895 0.0214599 0.0005 
911 1 0.00440341 0.0108334 0.0221794 0.0005 
296 1 0.0034474 0.0134126 0.0222497 0.00225 
521 1 0.000630182 0.0135525 0.022278 0.0005 
35 1 0.00774058 0.00900762 0.0216424 0.0015 
196 1 0.000520528 0.0139827 0.0213352 0.0005 
636 1 0.0118115 0.00724508 0.0205 0.0005 
611 1 0.00836258 0.0138729 0.0205 0.0005 
275 1 0.0142185 0.00775705 0.0207498 0.00075 
46 1 0.00882621 0.00725122 0.0207497 0.00075 
556 1 0.0136749 0.00915917 0.02075 0.00075 
287 1 0.0106772 0.0104793 0.0205 0.0005 
865 1 0.0135632 0.0120186 0.0204999 0.0005 
756 1 0.0115613 0.00897113 0.0214999 0.0015 
318 1 0.0134523 0.00746815 0.0220064 0.00075 
686 1 0.00934345 0.00865371 0.0204999 0.0005 
10 1 0.014996 0.00870317 0.0204999 0.0005 
569 1 0.0126513 0.0103173 0.0205 0.0005 
252 1 0.00859945 0.0105576 0.0205 0.0005 
188 1 0.0150729 0.0123872 0.0217588 0.0015 
772 1 0.0127329 0.0114577 0.0205 0.0005 
709 1 0.00962844 0.00984482 0.0207498 0.00075 
1061 1 0.0113538 0.011216 0.0204999 0.0005 
110 1 0.0136759 0.0131988 0.0205 0.0005 
1118 1 0.00965264 0.00946376 0.0220679 0.0005 
59 1 0.0114817 0.0129854 0.0205 0.0005 
974 1 0.0114317 0.0139842 0.0205 0.0005 
734 1 0.0125674 0.0125987 0.020984 0.00075 
968 1 0.0120723 0.0111705 0.0215216 0.00075 
62 1 0.00960461 0.0122941 0.0219997 0.002 
1238 1 0.00989061 0.00798778 0.0210069 0.0005 
1028 1 0.0137853 0.0108141 0.0207497 0.00075 
1653 1 0.0145256 0.00827697 0.0218445 0.0005 
80 1 0.0151609 0.00992098 0.0213596 0.001 
810 1 0.00966709 0.00800667 0.022237 0.00075 
43 1 0.0157132 0.0138033 0.0205 0.0005 
1080 1 0.0132821 0.0105291 0.0221333 0.00075 
1922 1 0.0157664 0.00827841 0.0209752 0.0005 
1056 1 0.0166354 0.0102443 0.0221299 0.0005 
714 1 0.0159955 0.0109816 0.0205 0.0005 
192 1 0.0160846 0.0070908 0.02075 0.00075 
1846 1 0.0161699 0.00919915 0.0205 0.0005 
342 1 0.0170501 0.0120193 0.0207499 0.00075 
319 1 0.0213149 0.00738196 0.0204999 0.0005 
293 1 0.018849 0.0105605 0.0217499 0.00175 
735 1 0.0209074 0.00963989 0.0214338 0.0005 
308 1 0.0202578 0.00832119 0.0209999 0.001 
49 1 0.0172242 0.00961004 0.0205 0.0005 
146 1 0.0191223 0.00745191 0.0205002 0.0005 
578 1 0.0228544 0.00887484 0.0209999 0.001 
139 1 0.0171017 0.01374 0.0210637 0.001 
90 1 0.0185618 0.00807752 0.021426 0.00075 
71 1 0.0214541 0.00907697 0.0205001 0.0005 
659 1 0.0171784 0.00837826 0.0207571 0.00075 
967 1 0.016993 0.0107959 0.0204999 0.0005 
130 1 0.0215447 0.0118322 0.0205 0.0005 
41 1 0.0217867 0.010257 0.0207499 0.00075 
231 1 0.0234999 0.010134 0.0205 0.0005 
279 1 0.0234995 0.00763122 0.0219879 0.0005 
693 1 0.0214603 0.00762045 0.0215617 0.0005 
725 1 0.0229539 0.0111899 0.0208866 0.00075 
697 1 0.020567 0.00975489 0.0205 0.0005 
330 1 0.0226116 0.0126449 0.02075 0.00075 
78 1 0.0224974 0.0138663 0.0205 0.0005 
800 1 0.0207976 0.0111629 0.0205 0.0005 
538 1 0.0234998 0.0122704 0.0215463 0.0005 
1236 1 0.0178336 0.012611 0.021745 0.0005 
812 1 0.0219401 0.0117487 0.0214185 0.0005 
944 1 0.0234957 0.0133056 0.0214795 0.0005 
794 1 0.0169709 0.0117792 0.0219741 0.0005 
592 1 0.0181035 0.0126464 0.0205 0.0005 
910 1 0.0214726 0.00877857 0.0221734 0.00075 
523 1 0.0186182 0.013504 0.0205 0.0005 
956 1 0.0190807 0.0124318 0.0205 0.0005 
350 1 0.0205914 0.0132925 0.0214998 0.0015 
639 1 0.0225371 0.0140989 0.0214744 0.0005 
1899 1 0.0166313 0.0101124 0.0211339 0.0005 
1138 1 0.0232147 0.0101921 0.0220942 0.00075 
272 1 0.0234816 0.0136771 0.0205 0.0005 
770 1 0.0235 0.0114085 0.0220535 0.0005 
1517 1 0.021272 0.0108714 0.0217095 0.0005 
1498 1 0.0186603 0.0129674 0.0222052 0.0005 
1193 1 0.018618 0.0138762 0.0214346 0.0005 
782 1 0.00051708 0.0145763 0.0221403 0.0005 
70 1 0.000499998 0.0145322 0.0205 0.0005 
888 1 0.00294911 0.0161131 0.0205 0.0005 
550 1 0.00193171 0.0174076 0.0205 0.0005 
1 1 0.00744086 0.0155522 0.0207496 0.00075 
529 1 0.00124986 0.0159464 0.0212498 0.00125 
269 1 0.00708414 0.0176432 0.0212499 0.00125 
19 1 0.00485059 0.0164795 0.0212499 0.00125 
1077 1 0.0064092 0.0162133 0.0205 0.0005 
877 1 0.00773244 0.0197136 0.0205 0.0005 
1060 1 0.00770252 0.0152779 0.0222052 0.0005 
1004 1 0.00559933 0.019142 0.02075 0.00075 
688 1 0.000559456 0.0189032 0.0205104 0.0005 
896 1 0.00682347 0.0192376 0.0205 0.0005 
1660 1 0.00501927 0.0180633 0.0205 0.0005 
972 1 0.00660091 0.0158245 0.0219617 0.00075 
223 1 0.00328075 0.0189997 0.0217498 0.00175 
700 1 0.00467169 0.0208216 0.02075 0.00075 
1416 1 0.00343238 0.0208649 0.0205 0.0005 
436 1 0.00783741 0.0162455 0.0219859 0.0005 
678 1 0.00102962 0.0204186 0.0209999 0.001 
315 1 0.0031392 0.0163965 0.0222814 0.00075 
600 1 0.00664566 0.020824 0.0213052 0.00125 
576 1 0.000756739 0.0178856 0.0212109 0.00075 
1094 1 0.0056421 0.0184589 0.0223702 0.00075 
1859 1 0.00774005 0.0192594 0.0213908 0.0005 
1884 1 0.000505482 0.0190697 0.0215806 0.0005 
430 1 0.00212533 0.0171234 0.0222038 0.0005 
748 1 0.00800306 0.0142724 0.0223841 0.0005 
1578 1 0.00372233 0.0212278 0.0216101 0.0005 
1293 1 0.00234784 0.0210315 0.0205 0.0005 
1682 1 0.00803573 0.0203493 0.0223883 0.0005 
1570 1 0.00815509 0.0188072 0.0205 0.0005 
1144 1 0.00837752 0.020674 0.0215065 0.0005 
1196 1 0.00846012 0.0171485 0.0222113 0.0005 
695 1 0.0085493 0.0147533 0.0213677 0.00075 
54 1 0.00895503 0.0164153 0.0209999 0.001 
786 1 0.00953539 0.0150467 0.0221663 0.0005 
180 1 0.0101486 0.0189799 0.0219997 0.002 
221 1 0.0113031 0.0157139 0.0214999 0.0015 
118 1 0.0138906 0.0148172 0.0212499 0.00125 
717 1 0.012203 0.0186315 0.0205 0.0005 
1232 1 0.0096668 0.0143142 0.0205 0.0005 
934 1 0.0135418 0.0192607 0.02075 0.00075 
1310 1 0.0126346 0.0177257 0.0205 0.0005 
1212 1 0.0148081 0.0185279 0.0205 0.0005 
624 1 0.0135225 0.0172657 0.0205 0.0005 
1035 1 0.0116417 0.0176002 0.0205 0.0005 
1592 1 0.0124092 0.0197327 0.0205 0.0005 
1697 1 0.00858791 0.0202315 0.0205 0.0005 
2033 1 0.0127792 0.0203348 0.0218375 0.0005 
1264 1 0.0102953 0.0210177 0.0205 0.0005 
1164 1 0.0118039 0.0207974 0.02075 0.00075 
2117 1 0.0155992 0.014435 0.0212763 0.0005 
982 1 0.015304 0.0209861 0.0205 0.0005 
1448 1 0.0123177 0.0176078 0.0216035 0.0005 
2386 1 0.0135796 0.0174295 0.0217399 0.00075 
2420 1 0.0140088 0.0203475 0.0221229 0.0005 
2431 1 0.0143849 0.016759 0.0205005 0.0005 
838 1 0.01615 0.0154304 0.022304 0.001 
189 1 0.0161456 0.014749 0.0205 0.0005 
1338 1 0.016366 0.018147 0.0205 0.0005 
345 1 0.0191222 0.014368 0.0205 0.0005 
741 1 0.0180377 0.0147461 0.0218479 0.0005 
450 1 0.018144 0.0146593 0.0204999 0.0005 
1311 1 0.0167319 0.0207515 0.0205 0.0005 
947 1 0.0183079 0.0183779 0.0205 0.0005 
260 1 0.0182572 0.0166107 0.0216243 0.001 
591 1 0.0221866 0.0150554 0.02075 0.00075 
465 1 0.0191958 0.0157388 0.0205028 0.0005 
719 1 0.0192136 0.0150702 0.0215588 0.00075 
628 1 0.0235002 0.016227 0.0204999 0.0005 
42 1 0.0223222 0.0165602 0.0207512 0.00075 
747 1 0.0209629 0.0149959 0.0205001 0.0005 
813 1 0.0202054 0.0160696 0.0205 0.0005 
787 1 0.0191533 0.0178294 0.0205 0.0005 
492 1 0.0198059 0.0170604 0.0204996 0.0005 
238 1 0.0234891 0.0174472 0.0205 0.0005 
1216 1 0.0200078 0.0166178 0.0216502 0.00075 
1230 1 0.0171345 0.0154731 0.02075 0.00075 
566 1 0.02101 0.0172865 0.02075 0.00075 
1333 1 0.0212489 0.0159709 0.0205 0.0005 
1091 1 0.0201297 0.0181384 0.0205 0.0005 
1398 1 0.0207423 0.0204375 0.0205 0.0005 
1189 1 0.0234941 0.014448 0.0211368 0.0005 
1427 1 0.0199577 0.0149176 0.0205 0.0005 
898 1 0.0196966 0.0177934 0.02134 0.0005 
1452 1 0.0208038 0.0192132 0.02075 0.00075 
1488 1 0.0193108 0.0190709 0.0207769 0.00075 
1124 1 0.0234989 0.0152236 0.0204999 0.0005 
1020 1 0.0225 0.0184305 0.0220039 0.0015 
1401 1 0.0215174 0.0158886 0.0221542 0.001 
1298 1 0.0204282 0.0154208 0.0212312 0.0005 
1170 1 0.0232482 0.015667 0.0216412 0.00075 
1831 1 0.0183937 0.0197531 0.0213448 0.0005 
1796 1 0.0197566 0.0183893 0.0223619 0.0005 
957 1 0.0234917 0.0197491 0.0205 0.0005 
1320 1 0.019532 0.0206318 0.02075 0.00075 
1598 1 0.0205592 0.0204067 0.0218962 0.0005 
1437 1 0.0233351 0.0203869 0.0219471 0.0005 
1184 1 0.0234941 0.0168438 0.0212983 0.0005 
1692 1 0.0205159 0.0182631 0.0216893 0.0005 
1828 1 0.0189023 0.0183153 0.0218098 0.0005 
1202 1 0.0214953 0.0201292 0.0216765 0.0005 
1460 1 0.021683 0.0209261 0.0222965 0.0005 
1219 1 0.0224167 0.0211004 0.0209999 0.001 
1984 1 0.0194898 0.0197364 0.0218286 0.0005 
1738 1 0.0178954 0.0207038 0.0205012 0.0005 
1648 1 0.017821 0.0212121 0.0221758 0.00125 
2460 1 0.0161565 0.019609 0.0214271 0.0005 
2467 1 0.0175527 0.0197873 0.0207166 0.0005 
1963 1 0.019564 0.020677 0.022358 0.0005 
482 1 0.000501325 0.021747 0.0205 0.0005 
12 1 0.00169175 0.022108 0.02075 0.00075 
952 1 0.00559522 0.0243436 0.0205 0.0005 
1081 1 0.00725829 0.0246069 0.0205 0.0005 
904 1 0.0065112 0.0239421 0.0205 0.0005 
1439 1 0.00539408 0.0230993 0.0207499 0.00075 
831 1 0.00402933 0.0241861 0.0209999 0.001 
534 1 0.000764659 0.0233382 0.02075 0.00075 
1423 1 0.00269759 0.0248591 0.0205 0.0005 
1406 1 0.00165947 0.0244012 0.0205 0.0005 
483 1 0.000500031 0.0248277 0.0205014 0.0005 
1394 1 0.00751649 0.0229037 0.0209999 0.001 
1483 1 0.00543553 0.0218002 0.0205004 0.0005 
1512 1 0.00258872 0.0231011 0.0204999 0.0005 
752 1 0.00504041 0.0251776 0.0205 0.0005 
1805 1 0.00325835 0.0220767 0.0207538 0.00075 
1576 1 0.000500062 0.0243829 0.0214042 0.0005 
1373 1 0.00637956 0.0256259 0.0207512 0.00075 
1860 1 0.00446145 0.0223016 0.0205 0.0005 
946 1 0.0061634 0.0242513 0.0221924 0.00125 
1625 1 0.000518062 0.0217476 0.0214998 0.0005 
1455 1 0.00221095 0.0237783 0.0217839 0.001 
1942 1 0.00501021 0.0219632 0.0216643 0.00075 
338 1 0.00179271 0.0265001 0.0217499 0.00175 
991 1 0.00477377 0.0267395 0.0212499 0.00125 
1662 1 0.00376322 0.0227213 0.0220108 0.00075 
1926 1 0.000566829 0.0232965 0.0220225 0.0005 
1520 1 0.00647369 0.0263637 0.0217731 0.0005 
1143 1 0.00341352 0.0281201 0.02075 0.00075 
2021 1 0.00681028 0.0268036 0.0207111 0.0005 
1103 1 0.00513485 0.028279 0.0205 0.0005 
980 1 0.00616165 0.0275381 0.0205 0.0005 
1825 1 0.000534201 0.0242504 0.0223975 0.0005 
2481 1 0.00674056 0.0277035 0.0223298 0.0005 
1698 1 0.00806271 0.0247758 0.0214457 0.00075 
1342 1 0.00806187 0.0236568 0.0224824 0.00075 
978 1 0.00845087 0.0254975 0.0205 0.0005 
1208 1 0.0084071 0.0240317 0.0205004 0.0005 
1757 1 0.0151514 0.0224769 0.0221008 0.0005 
1577 1 0.0147383 0.0220352 0.0205 0.0005 
1350 1 0.0134196 0.0232345 0.0205 0.0005 
919 1 0.00918496 0.0269558 0.022222 0.00175 
780 1 0.0130705 0.025264 0.0205 0.0005 
353 1 0.0152969 0.0241187 0.0205 0.0005 
1294 1 0.0105045 0.0228579 0.0205 0.0005 
1180 1 0.0107859 0.0218891 0.0205 0.0005 
1462 1 0.0108364 0.0252087 0.0207421 0.0005 
1467 1 0.0125628 0.0237501 0.0205 0.0005 
1343 1 0.00911446 0.0213425 0.0207499 0.00075 
1552 1 0.011757 0.0224511 0.0211953 0.00075 
1602 1 0.0113776 0.0261322 0.0205 0.0005 
1621 1 0.0128021 0.0245091 0.0215326 0.00075 
861 1 0.0144673 0.0250036 0.0208018 0.00075 
1643 1 0.010494 0.0238983 0.0205 0.0005 
1539 1 0.0135011 0.0242688 0.0204999 0.0005 
1330 1 0.0141184 0.0244787 0.0219407 0.0005 
1192 1 0.0147222 0.0262869 0.0205 0.0005 
1614 1 0.00927934 0.0228401 0.02075 0.00075 
1693 1 0.0153007 0.0228654 0.0205 0.0005 
1618 1 0.00930519 0.0240758 0.0209398 0.0005 
1221 1 0.0144388 0.0235055 0.0211712 0.00075 
1915 1 0.0137649 0.0259977 0.0205 0.0005 
1869 1 0.0100486 0.0257809 0.0205028 0.0005 
1601 1 0.0114669 0.0213862 0.0222829 0.00075 
1655 1 0.00869726 0.0219844 0.0223296 0.001 
1870 1 0.0143473 0.0275947 0.02075 0.00075 
2193 1 0.0108668 0.026998 0.0205 0.0005 
2263 1 0.0140538 0.0257867 0.0216944 0.0005 
2270 1 0.0126161 0.0268987 0.0214701 0.00125 
1753 1 0.0154946 0.024232 0.0218058 0.0005 
862 1 0.0154201 0.0270031 0.0204999 0.0005 
1775 1 0.0155878 0.0230856 0.0214322 0.0005 
1935 1 0.0108031 0.0280186 0.0205028 0.0005 
2004 1 0.0150303 0.0260038 0.0216924 0.0005 
138 1 0.00820163 0.0280983 0.0205 0.0005 
1105 1 0.0210358 0.0214093 0.0205 0.0005 
1563 1 0.0162739 0.023888 0.0205 0.0005 
1017 1 0.0161289 0.0219156 0.02075 0.00075 
144 1 0.0162066 0.0253007 0.0209999 0.001 
152 1 0.0208771 0.0234766 0.0205 0.0005 
1292 1 0.0181065 0.0243981 0.0207499 0.00075 
512 1 0.0198618 0.026603 0.0205 0.0005 
1288 1 0.0172885 0.0223356 0.0205 0.0005 
1048 1 0.0188102 0.0222469 0.02075 0.00075 
1415 1 0.0216012 0.022437 0.0205008 0.0005 
1087 1 0.0234983 0.0256013 0.0205 0.0005 
1176 1 0.0188411 0.0257442 0.02075 0.00075 
1269 1 0.02325 0.0226408 0.02075 0.00075 
1507 1 0.0235 0.0244599 0.0219543 0.0005 
1574 1 0.0235004 0.026646 0.0204994 0.0005 
1472 1 0.0232428 0.0242457 0.02075 0.00075 
1590 1 0.022016 0.0242591 0.0205 0.0005 
1634 1 0.0194329 0.0236976 0.02075 0.00075 
908 1 0.0221726 0.0232585 0.0205 0.0005 
1646 1 0.0179891 0.023167 0.0205 0.0005 
1927 1 0.017375 0.0265433 0.0205 0.0005 
1897 1 0.0188082 0.0234424 0.0221428 0.00075 
1370 1 0.02325 0.0279301 0.02075 0.00075 
1243 1 0.0207051 0.0251943 0.0212499 0.00125 
1978 1 0.0176054 0.0255595 0.0205 0.0005 
1881 1 0.0174307 0.0248099 0.0217176 0.0005 
1514 1 0.0204852 0.0223869 0.0218504 0.00125 
1925 1 0.0219557 0.0235313 0.0214372 0.0005 
1768 1 0.0166229 0.0272018 0.0204994 0.0005 
1794 1 0.0170443 0.0233526 0.0216709 0.001 
1527 1 0.0186516 0.024933 0.0220496 0.00075 
1876 1 0.0166411 0.0247543 0.0223286 0.0005 
1106 1 0.0185282 0.0276554 0.0212499 0.00125 
1323 1 0.0201053 0.0278034 0.0205055 0.0005 
1090 1 0.0227384 0.0264425 0.0220609 0.00125 
2243 1 0.0160487 0.0269447 0.0215788 0.00075 
1837 1 0.0170054 0.0275524 0.0221059 0.0005 
1015 1 0.0215883 0.0277723 0.0205 0.0005 
1974 1 0.0234903 0.0281523 0.0219615 0.0005 
1267 1 0.0206805 0.0273682 0.0218405 0.001 
2065 1 0.0197263 0.024329 0.0224171 0.0005 
1758 1 0.0173156 0.0261016 0.0224723 0.001 
162 1 0.000499861 0.0329914 0.0204999 0.0005 
259 1 0.00187783 0.0333674 0.0205 0.0005 
522 1 0.000927108 0.0341397 0.02075 0.00075 
348 1 0.00187961 0.0290183 0.0205 0.0005 
337 1 0.00303627 0.0329691 0.02075 0.00075 
897 1 0.000500003 0.0353555 0.0205 0.0005 
638 1 0.0033159 0.0344441 0.02075 0.00075 
506 1 0.000501184 0.0348107 0.0217148 0.0005 
1084 1 0.00124298 0.0312796 0.02075 0.00075 
1355 1 0.00207843 0.0345663 0.0205 0.0005 
1451 1 0.00435455 0.0289047 0.0205 0.0005 
412 1 0.00131222 0.0327262 0.0217324 0.001 
1285 1 0.000750571 0.0285427 0.02075 0.00075 
1607 1 0.00152885 0.0300886 0.0205 0.0005 
1529 1 0.00472298 0.0349409 0.0210436 0.00075 
1290 1 0.000505827 0.029743 0.0205 0.0005 
1449 1 0.00288008 0.0296971 0.0205 0.0005 
1761 1 0.00538397 0.033854 0.0208708 0.0005 
1760 1 0.00192724 0.0341514 0.0215068 0.0005 
1480 1 0.00662796 0.0286704 0.0207511 0.00075 
1611 1 0.00389696 0.0346641 0.0220341 0.0005 
2278 1 0.00294791 0.0308487 0.0205 0.0005 
2244 1 0.00177639 0.0287404 0.021526 0.0005 
2306 1 0.00595811 0.0322504 0.02075 0.00075 
2343 1 0.00548008 0.0292507 0.0205 0.0005 
2387 1 0.00705053 0.0334481 0.0210469 0.00075 
2407 1 0.00450157 0.0319026 0.0209426 0.0005 
2421 1 0.00553687 0.0331147 0.0221195 0.0005 
2423 1 0.00635788 0.028938 0.0222146 0.00075 
505 1 0.00937603 0.028863 0.0205 0.0005 
886 1 0.00975479 0.0321035 0.0205 0.0005 
1249 1 0.0142978 0.0322177 0.02075 0.00075 
1154 1 0.0111716 0.0327083 0.0205 0.0005 
609 1 0.012146 0.0329406 0.0205 0.0005 
1134 1 0.00913529 0.0334515 0.0207499 0.00075 
1340 1 0.0115196 0.0337563 0.0205 0.0005 
1678 1 0.0125543 0.0340626 0.0205 0.0005 
1703 1 0.0116015 0.0317975 0.0205026 0.0005 
1095 1 0.0135596 0.0336622 0.0205 0.0005 
1872 1 0.00824552 0.0298873 0.0216814 0.00125 
1167 1 0.015111 0.0349128 0.0205 0.0005 
1815 1 0.0103361 0.0331155 0.0208759 0.0005 
1348 1 0.0134807 0.0297451 0.0205 0.0005 
1594 1 0.0147951 0.03485 0.0214467 0.0005 
2043 1 0.0105435 0.0290031 0.0205 0.0005 
1867 1 0.00925033 0.0343224 0.0219657 0.00075 
1793 1 0.0151032 0.0289783 0.0218462 0.00075 
2242 1 0.0125327 0.0308962 0.0212659 0.001 
2245 1 0.011113 0.0319106 0.0216524 0.00075 
2266 1 0.0134492 0.0287518 0.0206546 0.0005 
1954 1 0.011423 0.0296719 0.0205147 0.0005 
924 1 0.0121013 0.0349986 0.0205 0.0005 
1762 1 0.0103849 0.0332164 0.0218711 0.0005 
640 1 0.010427 0.0343595 0.02075 0.00075 
2323 1 0.0131688 0.0348554 0.0205708 0.0005 
2362 1 0.014534 0.0297953 0.0205046 0.0005 
2347 1 0.0122612 0.0347717 0.0220978 0.0005 
1361 1 0.0157729 0.029757 0.0207499 0.00075 
2202 1 0.014445 0.0306293 0.0217891 0.001 
2451 1 0.0117106 0.0289421 0.021536 0.00075 
1083 1 0.0159795 0.0335568 0.0212686 0.00125 
698 1 0.016586 0.0316399 0.0211876 0.00075 
1786 1 0.0164859 0.0287612 0.0204999 0.0005 
1409 1 0.0174814 0.0288629 0.0205 0.0005 
1113 1 0.0187275 0.0295823 0.02075 0.00075 
1044 1 0.0206671 0.0296066 0.0212499 0.00125 
557 1 0.0204749 0.034017 0.0212499 0.00125 
304 1 0.0224685 0.0309447 0.0205 0.0005 
1142 1 0.0224493 0.0334118 0.0205 0.0005 
1335 1 0.0179109 0.0331596 0.0205 0.0005 
1273 1 0.0224875 0.0348551 0.021035 0.0005 
1414 1 0.0235 0.0343416 0.0205 0.0005 
1016 1 0.0232445 0.0324032 0.02075 0.00075 
1531 1 0.0188631 0.0334652 0.0205 0.0005 
1329 1 0.0234991 0.0291621 0.0205 0.0005 
1318 1 0.0196016 0.0326754 0.0205 0.0005 
1305 1 0.0192255 0.0309972 0.0207499 0.00075 
1258 1 0.0234956 0.0301673 0.0205 0.0005 
1695 1 0.0183541 0.0348235 0.0209999 0.001 
1224 1 0.0177326 0.0307707 0.0207508 0.00075 
878 1 0.0232065 0.0336875 0.0215239 0.00075 
1213 1 0.0205504 0.0317002 0.0207499 0.00075 
1447 1 0.0176581 0.029693 0.0218 0.00075 
1603 1 0.0169988 0.0297496 0.0205 0.0005 
1403 1 0.0191114 0.0302396 0.0217415 0.0005 
1445 1 0.0235 0.0312054 0.0205 0.0005 
1362 1 0.0232452 0.0304477 0.0217281 0.00075 
1442 1 0.0190852 0.0292311 0.0218952 0.0005 
1626 1 0.018757 0.0321339 0.0205 0.0005 
889 1 0.0232954 0.0353205 0.0205 0.0005 
1534 1 0.0225631 0.0290122 0.0215292 0.00075 
1579 1 0.0217783 0.0325082 0.0210483 0.00075 
1854 1 0.0165666 0.0286653 0.0217436 0.00075 
1468 1 0.0193183 0.0321226 0.0224005 0.00125 
1227 1 0.0178684 0.0334092 0.0219087 0.00075 
1812 1 0.0234955 0.0293059 0.0223236 0.0005 
2044 1 0.0178623 0.0311692 0.0220679 0.0005 
672 1 0.00608594 0.0356076 0.02075 0.00075 
1073 1 0.00471792 0.0367578 0.02075 0.00075 
249 1 0.00222488 0.0365828 0.0220925 0.002 
960 1 0.00641217 0.0370868 0.0208495 0.00075 
535 1 0.000606536 0.0382529 0.0205009 0.0005 
844 1 0.00380069 0.0380344 0.0205 0.0005 
366 1 0.00167593 0.0388296 0.0205 0.0005 
680 1 0.00275041 0.0396385 0.02075 0.00075 
733 1 0.00199769 0.0423338 0.0205 0.0005 
1108 1 0.00102416 0.0402681 0.0207505 0.00075 
316 1 0.000670475 0.0390873 0.0210515 0.0005 
1276 1 0.00243762 0.0411171 0.0216407 0.001 
1372 1 0.00648718 0.0422605 0.0222444 0.00075 
949 1 0.00590849 0.0419352 0.02075 0.00075 
91 1 0.00706035 0.0409096 0.02075 0.00075 
835 1 0.00771544 0.0358488 0.0205044 0.0005 
1679 1 0.00754609 0.0408297 0.0221677 0.00075 
626 1 0.00760603 0.042478 0.02075 0.00075 
2422 1 0.000681588 0.0414641 0.0205 0.0005 
2458 1 0.00358785 0.0410753 0.020528 0.0005 
457 1 0.00100211 0.0397598 0.0224282 0.001 
2485 1 0.00516569 0.0379678 0.0206837 0.0005 
471 1 0.00897325 0.0376873 0.0212544 0.00125 
2018 1 0.00950744 0.0410405 0.0223138 0.0005 
1353 1 0.0103062 0.0396642 0.0205 0.0005 
1419 1 0.0129941 0.0371426 0.02075 0.00075 
1019 1 0.0138599 0.0383502 0.0204999 0.0005 
669 1 0.00928822 0.0418007 0.0209999 0.001 
802 1 0.0137573 0.0425279 0.0207499 0.00075 
1043 1 0.0145941 0.0408612 0.0209999 0.001 
1107 1 0.0112527 0.036408 0.02075 0.00075 
901 1 0.0116624 0.0393895 0.02075 0.00075 
1149 1 0.0141453 0.0357048 0.0207495 0.00075 
1482 1 0.0128605 0.0413252 0.0207501 0.00075 
1265 1 0.014514 0.0394487 0.0205 0.0005 
1705 1 0.0148554 0.0384604 0.0205 0.0005 
1716 1 0.0155591 0.0419256 0.0205 0.0005 
912 1 0.00852499 0.0399496 0.0209999 0.001 
1346 1 0.0130922 0.039843 0.02075 0.00075 
1743 1 0.0159346 0.0393772 0.0209999 0.001 
1661 1 0.0139635 0.0419379 0.0218325 0.0005 
1181 1 0.0144892 0.0372894 0.02075 0.00075 
1802 1 0.0154857 0.0379505 0.0211331 0.0005 
2083 1 0.014503 0.0394415 0.0214999 0.0005 
2003 1 0.0132158 0.0384445 0.0215736 0.00075 
2194 1 0.0146212 0.0384456 0.021472 0.0005 
2275 1 0.0132669 0.0361792 0.0218683 0.00075 
2389 1 0.0114602 0.0375973 0.0213742 0.0005 
1902 1 0.0129683 0.0420492 0.021839 0.0005 
2032 1 0.0154793 0.0402646 0.0224381 0.00075 
2452 1 0.0118857 0.0356761 0.0216202 0.0005 
2454 1 0.0150273 0.0378717 0.0222915 0.0005 
1923 1 0.0147223 0.0419869 0.022483 0.0005 
2284 1 0.0103378 0.0363316 0.0223875 0.0005 
1862 1 0.0176794 0.0357901 0.0219308 0.0005 
856 1 0.0162498 0.0378216 0.0204998 0.0005 
1746 1 0.0160962 0.0418311 0.0219012 0.001 
959 1 0.0197468 0.0354425 0.0205 0.0005 
1544 1 0.0161189 0.0362021 0.0212526 0.00125 
986 1 0.0181738 0.0365467 0.0207521 0.00075 
1145 1 0.0175052 0.0378894 0.02075 0.00075 
1120 1 0.020318 0.0364933 0.0208632 0.00075 
909 1 0.0234981 0.0363066 0.0205 0.0005 
268 1 0.0176591 0.0391044 0.0204999 0.0005 
1278 1 0.0197558 0.0403512 0.0205 0.0005 
1033 1 0.0186408 0.040069 0.0219863 0.001 
1307 1 0.0204931 0.0376764 0.0205 0.0005 
1018 1 0.0183374 0.0402816 0.0205 0.0005 
973 1 0.019932 0.0413382 0.0205 0.0005 
1148 1 0.0173804 0.0396542 0.0212872 0.0005 
990 1 0.0220566 0.036352 0.0209991 0.001 
1003 1 0.0200537 0.0388925 0.0207501 0.00075 
374 1 0.0232497 0.0392275 0.02075 0.00075 
394 1 0.0173364 0.0402823 0.0205 0.0005 
326 1 0.0234998 0.0404411 0.0204998 0.0005 
650 1 0.0214983 0.0404704 0.0214998 0.0015 
848 1 0.0215166 0.0383492 0.02075 0.00075 
993 1 0.0235 0.041441 0.0205 0.0005 
996 1 0.0185778 0.0385993 0.0204999 0.0005 
892 1 0.0192716 0.0375871 0.0207499 0.00075 
1261 1 0.0235 0.0373066 0.0205 0.0005 
1117 1 0.0206272 0.0420641 0.0205 0.0005 
1268 1 0.0227712 0.0379914 0.0205 0.0005 
1422 1 0.017879 0.0416326 0.0210001 0.001 
1663 1 0.0181091 0.038816 0.0213561 0.0005 
1559 1 0.0189811 0.0395153 0.0205 0.0005 
1709 1 0.0165489 0.0421193 0.0205003 0.0005 
1051 1 0.0191525 0.0383958 0.0220075 0.00075 
1506 1 0.0164699 0.0380498 0.021448 0.0005 
1747 1 0.0165102 0.0386992 0.0222079 0.0005 
1882 1 0.0165164 0.0408569 0.0205 0.0005 
1549 1 0.0234474 0.0358037 0.0213629 0.0005 
1023 1 0.0196577 0.0423137 0.0205 0.0005 
876 1 0.0227502 0.0380533 0.0222971 0.00125 
981 1 0.0232699 0.0413983 0.0214722 0.0005 
1011 1 0.0234962 0.0403667 0.0214969 0.0005 
1819 1 0.0235 0.0409288 0.0223246 0.0005 
811 1 0.020694 0.0383759 0.0220053 0.00075 
1101 1 0.0195102 0.0417739 0.0216176 0.00075 
1803 1 0.0173998 0.0378008 0.0222451 0.00075 
1877 1 0.0171372 0.0405322 0.0216993 0.0005 
1140 1 0.0235001 0.0396294 0.0221722 0.0005 
2267 1 0.0176934 0.0418969 0.0224659 0.0005 
1727 1 0.017351 0.0393126 0.022245 0.0005 
1988 1 0.022045 0.0422227 0.0222945 0.0005 
1165 1 0.0208472 0.0369257 0.0223566 0.00075 
1657 1 0.0187977 0.0367222 0.0223774 0.001 
1177 1 0.00403774 0.0427551 0.0215291 0.00125 
451 1 0.000828863 0.0426736 0.0208115 0.00075 
615 1 0.00594213 0.0431754 0.0205 0.0005 
1537 1 0.00209773 0.0432297 0.0217226 0.00075 
1179 1 0.00698456 0.0445761 0.0214999 0.0015 
1186 1 0.00260484 0.0431588 0.0205068 0.0005 
682 1 0.00580807 0.0458888 0.0205 0.0005 
1301 1 0.00455027 0.0461203 0.0208564 0.00075 
1497 1 0.000754077 0.0438925 0.0218443 0.00075 
519 1 0.000500178 0.0438391 0.0205 0.0005 
247 1 0.00165504 0.0443861 0.0207514 0.00075 
309 1 0.00326873 0.0452604 0.0205 0.0005 
554 1 0.000505541 0.0448429 0.0204999 0.0005 
1215 1 0.00205757 0.0455934 0.0205012 0.0005 
570 1 0.00285717 0.0441347 0.0205 0.0005 
668 1 0.00050353 0.0482719 0.0205 0.0005 
386 1 0.00114572 0.0474967 0.0205044 0.0005 
433 1 0.00199192 0.0468972 0.0205135 0.0005 
584 1 0.00570802 0.0495092 0.0207721 0.00075 
236 1 0.00217388 0.0493402 0.0220305 0.002 
1432 1 0.00315823 0.0463639 0.0205502 0.0005 
1357 1 0.00596497 0.0468797 0.0205 0.0005 
1351 1 0.00282412 0.0469987 0.0213376 0.0005 
1378 1 0.00312041 0.0474862 0.0205154 0.0005 
1909 1 0.00633899 0.0478464 0.0205 0.0005 
1635 1 0.00277449 0.0457814 0.0217971 0.00075 
1822 1 0.00699893 0.0470971 0.0207538 0.0005 
1985 1 0.00767581 0.0482124 0.0208422 0.00075 
545 1 0.00100152 0.0461363 0.0214247 0.001 
1901 1 0.00463409 0.0487184 0.0208738 0.0005 
2185 1 0.00390755 0.0481282 0.0205019 0.0005 