ITEM: TIMESTEP
160000
ITEM: NUMBER OF ATOMS
1526
ITEM: BOX BOUNDS mm mm mm
-2.4e-06 0.0240024
-7.8e-06 0.0780078
-3e-06 0.030003
ITEM: ATOMS id type x y z radius 
324 1 0.00775558 0.00377262 0.0220055 0.002 
291 1 0.00266407 0.00150187 0.0214999 0.0015 
368 1 0.000528034 0.000639466 0.0205 0.0005 
784 1 0.00544163 0.00249876 0.0207887 0.00075 
32 1 0.00523139 0.000508151 0.0205002 0.0005 
241 1 0.00423368 0.00227866 0.0205 0.0005 
815 1 0.000670909 0.00167221 0.0205 0.0005 
448 1 0.0036557 0.00309909 0.0204999 0.0005 
300 1 0.000506781 0.000525981 0.0214935 0.0005 
442 1 0.00100049 0.00330082 0.0209999 0.001 
816 1 0.00519402 0.00368984 0.0204999 0.0005 
710 1 0.00422455 0.000505425 0.0205 0.0005 
527 1 0.000501164 0.00462483 0.0205 0.0005 
256 1 0.000501253 0.00562238 0.0206104 0.0005 
870 1 0.00762619 0.00577002 0.0205 0.0005 
100 1 0.00460927 0.00195907 0.0215842 0.0005 
153 1 0.00509867 0.001092 0.0214912 0.0005 
486 1 0.00372451 0.00521792 0.0222514 0.00225 
722 1 0.00150682 0.00508895 0.0205 0.0005 
864 1 0.0043398 0.00050476 0.0219446 0.0005 
503 1 0.000594776 0.00504653 0.0218682 0.0005 
561 1 0.00651619 0.0014531 0.02075 0.00075 
501 1 0.0059074 0.000507075 0.0214298 0.0005 
64 1 0.00643046 0.00651981 0.0210091 0.001 
954 1 0.00709588 0.000510425 0.0213312 0.0005 
274 1 0.00780962 0.00681702 0.0204999 0.0005 
75 1 0.00140493 0.00647726 0.0207552 0.00075 
1195 1 0.00774793 0.00128281 0.0217755 0.0005 
390 1 0.000502982 0.00658401 0.0216273 0.0005 
842 1 0.00689359 0.00609376 0.0223702 0.0005 
121 1 0.00880563 0.00672905 0.0205006 0.0005 
228 1 0.00860791 0.00557715 0.0204999 0.0005 
490 1 0.00976558 0.00399589 0.0205 0.0005 
199 1 0.0120251 0.00205325 0.0205 0.0005 
395 1 0.0112068 0.00263131 0.0205 0.0005 
474 1 0.0139706 0.000783368 0.0207659 0.00075 
282 1 0.0111792 0.0015092 0.0205 0.0005 
590 1 0.0107775 0.00051185 0.0205 0.0005 
176 1 0.0127751 0.00050338 0.0205 0.0005 
289 1 0.0117705 0.000662821 0.0204993 0.0005 
362 1 0.00977418 0.000501045 0.0205075 0.0005 
370 1 0.00822591 0.000749982 0.02075 0.00075 
783 1 0.0105817 0.00341506 0.0205 0.0005 
51 1 0.0129725 0.00238099 0.0205 0.0005 
233 1 0.00997019 0.00178198 0.02075 0.00075 
217 1 0.0106892 0.00441011 0.0204999 0.0005 
636 1 0.0118695 0.00568539 0.0205017 0.0005 
549 1 0.0102003 0.00415868 0.0213948 0.0005 
126 1 0.0122936 0.00410504 0.0216539 0.0015 
307 1 0.00868103 0.00200393 0.0204996 0.0005 
676 1 0.0104627 0.00075002 0.0217207 0.00075 
209 1 0.0135143 0.00519389 0.0205 0.0005 
730 1 0.00890919 0.00163196 0.0213988 0.0005 
764 1 0.0101564 0.00590163 0.0212486 0.00125 
311 1 0.0133438 0.00658874 0.0211017 0.001 
192 1 0.0148121 0.0057041 0.0207499 0.00075 
763 1 0.00968196 0.00297236 0.0204998 0.0005 
66 1 0.0139195 0.00427364 0.0205 0.0005 
61 1 0.014482 0.00464987 0.0214132 0.0005 
108 1 0.0147445 0.00292423 0.0212497 0.00125 
581 1 0.0118626 0.00654606 0.0221584 0.00075 
89 1 0.00926999 0.000500929 0.0214017 0.0005 
155 1 0.0123705 0.00126679 0.0220273 0.00125 
178 1 0.0154698 0.000752568 0.02075 0.00075 
364 1 0.0103603 0.00294543 0.0216479 0.00075 
171 1 0.0116993 0.00707316 0.0207499 0.00075 
161 1 0.0232501 0.000749904 0.0207496 0.00075 
159 1 0.0226746 0.00336098 0.0204994 0.0005 
204 1 0.0235003 0.00392423 0.0204999 0.0005 
219 1 0.0215349 0.00100019 0.0210002 0.001 
333 1 0.0232505 0.00441028 0.0217254 0.00075 
142 1 0.0232492 0.00225449 0.02075 0.00075 
200 1 0.0209053 0.00358019 0.02075 0.00075 
340 1 0.0221111 0.00447231 0.02075 0.00075 
452 1 0.0235 0.00492401 0.0204999 0.0005 
518 1 0.0202835 0.00221378 0.02075 0.00075 
185 1 0.0164811 0.0047223 0.0212494 0.00125 
31 1 0.0173788 0.00170277 0.0214998 0.0015 
123 1 0.0229638 0.00107415 0.0224449 0.001 
273 1 0.0221602 0.00305029 0.021873 0.001 
113 1 0.0177835 0.00368646 0.0205 0.0005 
544 1 0.0188199 0.00494668 0.0209999 0.001 
577 1 0.0232503 0.0058489 0.0213027 0.00075 
652 1 0.0178612 0.00564419 0.0219188 0.0005 
290 1 0.0190068 0.00322371 0.0207562 0.00075 
281 1 0.0205909 0.00407062 0.0221323 0.00075 
190 1 0.0177535 0.00631385 0.02075 0.00075 
57 1 0.0209075 0.00622025 0.0215186 0.0015 
143 1 0.0225964 0.00654765 0.0204994 0.0005 
853 1 0.0190564 0.00656478 0.0205021 0.0005 
106 1 0.022402 0.00513577 0.0222877 0.0005 
1012 1 0.0184952 0.00671667 0.0222396 0.00075 
588 1 0.00342147 0.00733329 0.0205 0.0005 
360 1 0.00664509 0.0133832 0.0205 0.0005 
380 1 0.00486128 0.00786601 0.0205 0.0005 
154 1 0.00596068 0.00999127 0.02075 0.00075 
427 1 0.00520326 0.00962891 0.0217091 0.0005 
13 1 0.000632916 0.0078373 0.0205 0.0005 
879 1 0.00726767 0.00765752 0.0205059 0.0005 
137 1 0.000749441 0.00916013 0.0205 0.0005 
44 1 0.00482522 0.0117048 0.0207494 0.00075 
401 1 0.00631267 0.0122119 0.0219854 0.00125 
1166 1 0.00650146 0.00840692 0.0212582 0.00075 
1234 1 0.0052186 0.0107155 0.0214614 0.0005 
323 1 0.00277045 0.0103732 0.022 0.002 
887 1 0.00701686 0.00709286 0.0222713 0.0005 
820 1 0.000646638 0.0102832 0.0205 0.0005 
1067 1 0.00776738 0.0134001 0.0205 0.0005 
1359 1 0.0022199 0.00844622 0.0205 0.0005 
713 1 0.00223399 0.0123006 0.0205 0.0005 
881 1 0.000527433 0.0114472 0.0217285 0.0005 
911 1 0.00454317 0.0122562 0.022238 0.0005 
943 1 0.00301429 0.012926 0.0205 0.0005 
673 1 0.00385862 0.0130222 0.0214166 0.00075 
174 1 0.00100005 0.0129805 0.0210148 0.001 
447 1 0.00770958 0.00855409 0.0205003 0.0005 
1070 1 0.00789808 0.00790294 0.0217268 0.00075 
737 1 0.00371018 0.0138847 0.0205078 0.0005 
891 1 0.00827525 0.00772867 0.0205 0.0005 
35 1 0.00813825 0.0101797 0.0215838 0.0015 
275 1 0.0131856 0.00960243 0.02075 0.00075 
46 1 0.00949163 0.00773367 0.0207872 0.00075 
80 1 0.0158733 0.0107267 0.0209995 0.001 
556 1 0.0123686 0.0109247 0.0208074 0.00075 
287 1 0.0110874 0.0108448 0.0205012 0.0005 
714 1 0.0155165 0.0121301 0.0204999 0.0005 
865 1 0.0135706 0.0107725 0.0205 0.0005 
756 1 0.011119 0.00911238 0.0215023 0.0015 
318 1 0.0131504 0.0081765 0.0218154 0.00075 
686 1 0.00982916 0.0102661 0.0204999 0.0005 
975 1 0.0144517 0.010873 0.0214541 0.0005 
10 1 0.0145307 0.0111795 0.0205007 0.0005 
569 1 0.010977 0.0112644 0.0214037 0.0005 
252 1 0.009487 0.011206 0.0205 0.0005 
33 1 0.0158837 0.00790251 0.02201 0.002 
872 1 0.00847335 0.0122451 0.0207514 0.00075 
188 1 0.0138743 0.0127871 0.0214992 0.0015 
772 1 0.0114655 0.0117779 0.0205007 0.0005 
709 1 0.0102889 0.0121317 0.0207501 0.00075 
1061 1 0.0114019 0.0125387 0.0211455 0.0005 
342 1 0.0158526 0.0119393 0.0222607 0.00075 
110 1 0.0121417 0.0127257 0.0205 0.0005 
1028 1 0.0117159 0.0110573 0.0224606 0.00075 
1118 1 0.0100491 0.010804 0.0214685 0.0005 
826 1 0.0148151 0.0101661 0.0220633 0.0005 
59 1 0.0111464 0.0132847 0.0205007 0.0005 
974 1 0.0121316 0.0137486 0.0205005 0.0005 
571 1 0.01337 0.0104862 0.0224182 0.001 
734 1 0.0117582 0.0127707 0.02232 0.00075 
968 1 0.0104892 0.0119191 0.0224283 0.00075 
189 1 0.0163139 0.0140561 0.0204999 0.0005 
319 1 0.0215634 0.00783119 0.0205 0.0005 
6 1 0.0230001 0.00789932 0.021008 0.001 
293 1 0.0185113 0.0107104 0.0217747 0.00175 
735 1 0.0207575 0.0105188 0.0216901 0.0005 
308 1 0.021117 0.00916418 0.0210267 0.001 
49 1 0.0179176 0.00865846 0.0205 0.0005 
146 1 0.0204411 0.00790895 0.0205 0.0005 
109 1 0.019564 0.00742549 0.0205024 0.0005 
578 1 0.0229976 0.009899 0.0210003 0.001 
139 1 0.0167976 0.0127279 0.021001 0.001 
90 1 0.0197825 0.00816817 0.0215648 0.00075 
71 1 0.0203334 0.0103307 0.0205002 0.0005 
659 1 0.0184593 0.00766473 0.0210386 0.00075 
967 1 0.0172226 0.00937778 0.0204999 0.0005 
130 1 0.0211417 0.0121675 0.0205 0.0005 
41 1 0.0215126 0.0108479 0.02075 0.00075 
231 1 0.0234772 0.0114863 0.0205 0.0005 
279 1 0.0234994 0.00888709 0.02202 0.0005 
693 1 0.0217493 0.00803451 0.0218329 0.0005 
725 1 0.0232494 0.0113143 0.0220021 0.00075 
697 1 0.0202805 0.0113302 0.0205008 0.0005 
330 1 0.0223643 0.0120826 0.02075 0.00075 
78 1 0.0230197 0.0131215 0.0205 0.0005 
741 1 0.0179112 0.0137923 0.021483 0.0005 
800 1 0.0202623 0.0126488 0.0205023 0.0005 
538 1 0.0234994 0.0124764 0.0210951 0.0005 
1236 1 0.0195954 0.0128515 0.0212271 0.0005 
812 1 0.0229574 0.0127746 0.0218816 0.0005 
944 1 0.0234911 0.0136326 0.0212207 0.0005 
794 1 0.0185651 0.012942 0.0213917 0.0005 
592 1 0.0181979 0.0125369 0.0204996 0.0005 
542 1 0.0168258 0.0140811 0.0222787 0.00075 
910 1 0.0218219 0.0102063 0.0222678 0.00075 
450 1 0.0177003 0.0138213 0.0205 0.0005 
523 1 0.0188519 0.0132926 0.0204999 0.0005 
956 1 0.0198189 0.0135457 0.0205004 0.0005 
350 1 0.0214454 0.0141353 0.0215033 0.0015 
1193 1 0.018848 0.0140952 0.0219774 0.0005 
439 1 0.00591406 0.0148112 0.0212499 0.00125 
646 1 0.00239346 0.0141351 0.0205 0.0005 
611 1 0.00747886 0.014437 0.0205 0.0005 
70 1 0.0005006 0.0148633 0.0205 0.0005 
508 1 0.00139879 0.0143954 0.0205 0.0005 
695 1 0.00765592 0.0161072 0.0207526 0.00075 
550 1 0.000684253 0.019181 0.0205 0.0005 
1 1 0.00628513 0.0167199 0.0207506 0.00075 
529 1 0.00125012 0.0170583 0.0212499 0.00125 
786 1 0.0077612 0.0170328 0.0218911 0.0005 
269 1 0.00430645 0.019279 0.0212516 0.00125 
19 1 0.0040865 0.016731 0.021252 0.00125 
1077 1 0.00512433 0.0179242 0.0205 0.0005 
54 1 0.0064105 0.0185074 0.0210104 0.001 
877 1 0.00520103 0.0208396 0.0214432 0.0005 
888 1 0.00411955 0.0144327 0.0213243 0.0005 
1060 1 0.00554717 0.0183406 0.0222612 0.0005 
1004 1 0.00307908 0.0208258 0.0207501 0.00075 
1293 1 0.00262396 0.0209703 0.0219063 0.0005 
180 1 0.00785255 0.0209752 0.0220101 0.002 
1196 1 0.00580163 0.0194354 0.0224027 0.0005 
678 1 0.00100174 0.0211616 0.0210014 0.001 
221 1 0.0095172 0.0179375 0.0215122 0.0015 
62 1 0.00952579 0.0144589 0.0220022 0.002 
118 1 0.0125845 0.0152641 0.0212509 0.00125 
198 1 0.0137301 0.017714 0.0212497 0.00125 
582 1 0.0154649 0.0173347 0.02217 0.00075 
717 1 0.0118043 0.0189734 0.0208173 0.0005 
1232 1 0.00885862 0.0163429 0.0205005 0.0005 
934 1 0.0111002 0.0200301 0.0207842 0.00075 
1310 1 0.0116241 0.0165225 0.0205011 0.0005 
1212 1 0.0112292 0.018209 0.0205 0.0005 
1338 1 0.0120149 0.0177144 0.020893 0.0005 
838 1 0.0117614 0.0171101 0.0222457 0.001 
1448 1 0.0116585 0.0192844 0.0217966 0.0005 
624 1 0.00984444 0.0205159 0.0205 0.0005 
1496 1 0.0139574 0.0197811 0.0218804 0.00075 
1035 1 0.0108081 0.0203867 0.0222445 0.0005 
272 1 0.0234993 0.0143325 0.0205 0.0005 
43 1 0.0159981 0.0150196 0.0205 0.0005 
260 1 0.0163676 0.0163848 0.0209999 0.001 
345 1 0.0187526 0.0143202 0.0205 0.0005 
591 1 0.0232199 0.0155285 0.02075 0.00075 
465 1 0.0175991 0.0172626 0.0205 0.0005 
719 1 0.0186589 0.0156139 0.0207498 0.00075 
628 1 0.023466 0.0168238 0.0205 0.0005 
42 1 0.0232337 0.0180294 0.0207508 0.00075 
747 1 0.0219147 0.0158069 0.0205027 0.0005 
813 1 0.0216409 0.0167699 0.0205007 0.0005 
787 1 0.0183976 0.0165388 0.0215491 0.0005 
492 1 0.022037 0.0185715 0.0205 0.0005 
238 1 0.023499 0.019235 0.0205007 0.0005 
947 1 0.0163466 0.0180875 0.020545 0.0005 
1216 1 0.0175367 0.0157491 0.0222032 0.00075 
1230 1 0.0172399 0.0148535 0.021037 0.00075 
566 1 0.022395 0.0197707 0.02075 0.00075 
1333 1 0.0223739 0.0166945 0.0215821 0.0005 
1091 1 0.0193823 0.017705 0.0208158 0.0005 
1398 1 0.0207218 0.0212606 0.020502 0.0005 
1189 1 0.023353 0.0161116 0.0219045 0.0005 
1427 1 0.0197547 0.015138 0.0211235 0.0005 
898 1 0.0216064 0.0181514 0.0215721 0.0005 
1253 1 0.0196421 0.0148279 0.0221339 0.0005 
1452 1 0.0210328 0.0204315 0.0224345 0.00075 
1488 1 0.0190196 0.0191864 0.0210233 0.00075 
896 1 0.00344212 0.0222016 0.0205 0.0005 
482 1 0.000505671 0.0230648 0.0205 0.0005 
12 1 0.000895632 0.0245067 0.02075 0.00075 
700 1 0.00192415 0.0226352 0.0207607 0.00075 
600 1 0.00495052 0.0229176 0.0212499 0.00125 
36 1 0.00322278 0.025688 0.0218391 0.00175 
688 1 0.000500336 0.0214161 0.0225303 0.0005 
952 1 0.00536154 0.0264491 0.0205 0.0005 
1081 1 0.00706629 0.0260427 0.0205 0.0005 
1416 1 0.00229856 0.0238456 0.0209036 0.0005 
904 1 0.00613216 0.0277736 0.0205007 0.0005 
1439 1 0.00631042 0.0250429 0.020918 0.00075 
831 1 0.00469218 0.0278817 0.0209999 0.001 
152 1 0.0134006 0.0269461 0.0205 0.0005 
780 1 0.0124098 0.0244393 0.0205 0.0005 
353 1 0.0133719 0.0247356 0.0205 0.0005 
144 1 0.0154728 0.023023 0.0215195 0.001 
978 1 0.0090322 0.0257685 0.020511 0.0005 
1233 1 0.0123549 0.0259222 0.0210019 0.001 
1264 1 0.0104955 0.0223277 0.0211789 0.0005 
1292 1 0.0152177 0.026937 0.0207714 0.00075 
1294 1 0.0105603 0.0238885 0.0212387 0.0005 
1350 1 0.0156279 0.0257785 0.0205 0.0005 
1394 1 0.00882795 0.0246887 0.0215846 0.001 
1164 1 0.0125812 0.0212831 0.0208331 0.00075 
1180 1 0.0114915 0.022161 0.0205166 0.0005 
1208 1 0.00955112 0.0268041 0.0215033 0.0005 
1462 1 0.0109288 0.0273959 0.0205641 0.0005 
1267 1 0.0138533 0.0274427 0.0218412 0.001 
1467 1 0.0131207 0.0229511 0.0222039 0.0005 
512 1 0.0205119 0.0277304 0.0205046 0.0005 
862 1 0.019637 0.0261392 0.0205 0.0005 
1020 1 0.0224668 0.021893 0.0215008 0.0015 
982 1 0.0178373 0.0238493 0.0205 0.0005 
957 1 0.0233816 0.026238 0.0205296 0.0005 
1113 1 0.0187333 0.0274519 0.02075 0.00075 
1288 1 0.0191438 0.022864 0.0207745 0.0005 
1105 1 0.0199833 0.0220449 0.0204999 0.0005 
1311 1 0.0173938 0.0231159 0.0210151 0.0005 
1320 1 0.0190089 0.02173 0.0213386 0.00075 
1361 1 0.0165888 0.027589 0.0207501 0.00075 
1048 1 0.0191372 0.0242751 0.0207529 0.00075 
1415 1 0.0207932 0.0243792 0.0205 0.0005 
1087 1 0.0215773 0.0261445 0.0205055 0.0005 
1176 1 0.0199579 0.0274701 0.0216162 0.00075 
1442 1 0.0172261 0.0216886 0.0219193 0.0005 
1269 1 0.0222289 0.0245518 0.0221099 0.00075 
1507 1 0.0233979 0.0272161 0.0222506 0.0005 
1423 1 0.00496415 0.0284097 0.0223796 0.0005 
162 1 0.000555269 0.0316937 0.0205 0.0005 
249 1 0.00229108 0.0349312 0.0221175 0.002 
259 1 0.00165667 0.0320851 0.0205018 0.0005 
534 1 0.00272836 0.0284461 0.02075 0.00075 
522 1 0.000807403 0.0330603 0.02075 0.00075 
672 1 0.00461067 0.0338725 0.02075 0.00075 
348 1 0.00504007 0.0317876 0.0204998 0.0005 
337 1 0.00338302 0.0327262 0.02075 0.00075 
897 1 0.000499641 0.0342821 0.0204997 0.0005 
980 1 0.00611576 0.031402 0.0205 0.0005 
991 1 0.00506873 0.030207 0.0212501 0.00125 
638 1 0.00496149 0.0333475 0.0221129 0.00075 
925 1 0.00671176 0.0337854 0.0212499 0.00125 
483 1 0.000767192 0.0291814 0.020535 0.0005 
1103 1 0.00671501 0.0322035 0.0205002 0.0005 
338 1 0.00218643 0.0304929 0.0220794 0.00175 
1406 1 0.00412738 0.0289194 0.0220649 0.0005 
506 1 0.000506707 0.0326289 0.021884 0.0005 
1480 1 0.00748033 0.0320564 0.0219439 0.00075 
505 1 0.00787671 0.0317263 0.0205 0.0005 
919 1 0.00776829 0.0289965 0.021751 0.00175 
261 1 0.014848 0.0300662 0.0205013 0.0005 
886 1 0.0109511 0.0331064 0.0205 0.0005 
138 1 0.00993444 0.0319964 0.0205 0.0005 
861 1 0.0132001 0.028845 0.0207885 0.00075 
471 1 0.00921042 0.0337042 0.0212499 0.00125 
984 1 0.0141933 0.0316621 0.021517 0.0015 
1192 1 0.013612 0.0300147 0.0205065 0.0005 
1249 1 0.0152357 0.028654 0.0210689 0.00075 
1093 1 0.0150169 0.0296981 0.0223388 0.00075 
1041 1 0.0111256 0.0303005 0.0215194 0.0015 
1330 1 0.0131692 0.0300566 0.022441 0.0005 
1419 1 0.0152972 0.0352767 0.0207533 0.00075 
1446 1 0.0138748 0.0342604 0.0212957 0.00075 
1154 1 0.012002 0.0353939 0.021184 0.0005 
1044 1 0.0217279 0.028702 0.021858 0.00125 
557 1 0.0213247 0.0318187 0.0212499 0.00125 
1015 1 0.023473 0.0296457 0.0205 0.0005 
698 1 0.0180915 0.0290611 0.02075 0.00075 
609 1 0.0164199 0.0323264 0.0205 0.0005 
304 1 0.0231175 0.0311395 0.0205 0.0005 
1083 1 0.0167415 0.030508 0.0212499 0.00125 
909 1 0.0232309 0.0336683 0.0205152 0.0005 
1120 1 0.0205561 0.0336203 0.02075 0.00075 
916 1 0.0171807 0.0288494 0.0216493 0.0005 
1307 1 0.0208149 0.0348278 0.0205 0.0005 
1153 1 0.0166792 0.0342002 0.0210126 0.001 
1142 1 0.0218369 0.0344304 0.0211142 0.0005 
1335 1 0.0186271 0.0315923 0.0214251 0.0005 
1348 1 0.0164194 0.0288415 0.0205016 0.0005 
1273 1 0.0220834 0.0352003 0.0223695 0.0005 
1414 1 0.0227757 0.0345465 0.0220359 0.0005 
1016 1 0.0232443 0.031644 0.021947 0.00075 
1205 1 0.0191253 0.0339539 0.0220214 0.001 
535 1 0.000506386 0.0358387 0.0205 0.0005 
844 1 0.00414271 0.0356189 0.0205 0.0005 
60 1 0.0052937 0.0371471 0.0217499 0.00175 
451 1 0.000758324 0.0393186 0.02075 0.00075 
433 1 0.0025338 0.0422837 0.0205 0.0005 
386 1 0.00156513 0.0413228 0.0205 0.0005 
366 1 0.00125788 0.0366407 0.0205 0.0005 
680 1 0.00224236 0.0374464 0.02075 0.00075 
519 1 0.000647973 0.0406167 0.0205 0.0005 
668 1 0.000634004 0.0419316 0.0205 0.0005 
247 1 0.00201214 0.0401691 0.02075 0.00075 
733 1 0.00315406 0.0406907 0.0205 0.0005 
1108 1 0.00075826 0.0378164 0.0207498 0.00075 
615 1 0.00582283 0.0390175 0.0205035 0.0005 
554 1 0.000560913 0.0408108 0.0220757 0.0005 
1186 1 0.0035344 0.0417802 0.0205 0.0005 
316 1 0.000500038 0.0366956 0.0212417 0.0005 
1276 1 0.0034981 0.0391771 0.0210054 0.001 
1177 1 0.00530483 0.0404778 0.0213324 0.00125 
570 1 0.00552175 0.042205 0.0205009 0.0005 
309 1 0.00650948 0.0423613 0.0205001 0.0005 
626 1 0.00755226 0.0408325 0.0208457 0.00075 
1372 1 0.00735817 0.0386042 0.0224166 0.00075 
949 1 0.00777061 0.0393417 0.02075 0.00075 
640 1 0.0111352 0.0363013 0.02075 0.00075 
91 1 0.00878573 0.0367515 0.02075 0.00075 
514 1 0.0107425 0.0406326 0.0205 0.0005 
641 1 0.0109198 0.0387709 0.0209999 0.001 
1018 1 0.0154664 0.0412032 0.0205 0.0005 
1019 1 0.0159446 0.0368487 0.0205 0.0005 
669 1 0.00895813 0.0381717 0.0217923 0.001 
835 1 0.0100589 0.0372982 0.0205 0.0005 
1134 1 0.00978892 0.0355915 0.02075 0.00075 
802 1 0.0128001 0.0387257 0.02075 0.00075 
1033 1 0.0139201 0.0402982 0.0210949 0.001 
1101 1 0.0134508 0.0421509 0.0215215 0.00075 
960 1 0.00902029 0.0357742 0.0222593 0.00075 
1278 1 0.0145312 0.0415574 0.0205094 0.0005 
1043 1 0.014531 0.0369605 0.0210002 0.001 
1107 1 0.013238 0.0357653 0.0207694 0.00075 
1131 1 0.0142104 0.0389401 0.0205027 0.0005 
973 1 0.0153544 0.0401733 0.0205085 0.0005 
901 1 0.0123868 0.0375899 0.0216748 0.00075 
1148 1 0.0158485 0.0381846 0.0210869 0.0005 
1400 1 0.0147489 0.0393661 0.0219988 0.0005 
268 1 0.0150668 0.0384097 0.0205019 0.0005 
924 1 0.0132932 0.0367408 0.0218188 0.0005 
1487 1 0.0104907 0.0422793 0.0205832 0.0005 
1023 1 0.0148927 0.0425718 0.0208145 0.0005 
1167 1 0.0163319 0.0366192 0.0214213 0.0005 
1149 1 0.0165721 0.0356108 0.0221894 0.00075 
990 1 0.0218897 0.0359428 0.0210176 0.001 
1145 1 0.0176212 0.0357185 0.02075 0.00075 
1003 1 0.0197915 0.0403888 0.0207526 0.00075 
374 1 0.0230415 0.0387408 0.02075 0.00075 
394 1 0.0173524 0.0387837 0.0205 0.0005 
326 1 0.023476 0.0398942 0.0205 0.0005 
650 1 0.0219001 0.0406828 0.0215012 0.0015 
959 1 0.019806 0.0354623 0.020532 0.0005 
848 1 0.0215124 0.0385413 0.0207502 0.00075 
993 1 0.0235 0.0419202 0.0205 0.0005 
996 1 0.0169488 0.0367454 0.0205 0.0005 
892 1 0.0178618 0.0376477 0.0207498 0.00075 
856 1 0.0165684 0.037814 0.0205 0.0005 
1261 1 0.0232857 0.0361439 0.0205 0.0005 
986 1 0.020351 0.0365564 0.0215812 0.00075 
1140 1 0.0200299 0.0406697 0.0225154 0.0005 
1117 1 0.0164368 0.0409979 0.0206279 0.0005 
1181 1 0.0177533 0.0373102 0.0222138 0.00075 
1095 1 0.0161296 0.0377953 0.0219657 0.0005 
1268 1 0.0217598 0.0383129 0.0219952 0.0005 
584 1 0.00469874 0.0431319 0.0207918 0.00075 
579 1 0.00075664 0.0452614 0.0207508 0.00075 
242 1 0.00580844 0.0449257 0.0205 0.0005 
814 1 0.00461431 0.0452057 0.02075 0.00075 
423 1 0.00122095 0.046934 0.021 0.001 
347 1 0.0059925 0.0468958 0.02075 0.00075 
543 1 0.00125172 0.0491715 0.0212577 0.00125 
855 1 0.00431115 0.0472351 0.0205 0.0005 
402 1 0.00426797 0.0492842 0.0217499 0.00175 
712 1 0.00660164 0.0492272 0.02075 0.00075 
1242 1 0.00487004 0.0464051 0.0205 0.0005 
1251 1 0.00322662 0.0467248 0.0205 0.0005 
987 1 0.005772 0.0443816 0.0214126 0.0005 
682 1 0.0075971 0.0444323 0.020556 0.0005 
762 1 0.000763902 0.0458025 0.0219442 0.0005 
533 1 0.00743738 0.0463886 0.02075 0.00075 
495 1 0.00722615 0.0492383 0.0224329 0.00075 
1387 1 0.00644387 0.0463557 0.0223693 0.001 
236 1 0.00266006 0.0440867 0.0223705 0.002 
1100 1 0.00809082 0.0478231 0.0216132 0.00075 
40 1 0.00815022 0.0484608 0.0205 0.0005 
883 1 0.0141197 0.0445291 0.0205017 0.0005 
328 1 0.00962664 0.0435298 0.0205 0.0005 
969 1 0.0153211 0.0453632 0.0205 0.0005 
405 1 0.0135996 0.048613 0.0205 0.0005 
453 1 0.011304 0.0457039 0.0220445 0.002 
335 1 0.0113537 0.0477211 0.0205091 0.0005 
1194 1 0.0121657 0.043115 0.0205 0.0005 
1201 1 0.0127698 0.049553 0.02075 0.00075 
1240 1 0.0138428 0.0458902 0.020954 0.00075 
367 1 0.0100037 0.0494529 0.0217499 0.00175 
1297 1 0.0138392 0.0437349 0.0215021 0.00075 
1306 1 0.0151678 0.0466645 0.0207476 0.00075 
1490 1 0.0158589 0.047984 0.0208924 0.00075 
1481 1 0.0152431 0.045921 0.022327 0.001 
1133 1 0.0184859 0.0433805 0.0207508 0.00075 
985 1 0.0173103 0.0448753 0.0205 0.0005 
1062 1 0.0232178 0.0430462 0.0215865 0.00075 
485 1 0.0232408 0.0475952 0.0207501 0.00075 
499 1 0.0200424 0.0487438 0.0212608 0.00125 
804 1 0.0234998 0.0436374 0.0205058 0.0005 
935 1 0.0199386 0.043412 0.0205019 0.0005 
970 1 0.023245 0.0449487 0.0207553 0.00075 
859 1 0.021723 0.0477608 0.02075 0.00075 
1097 1 0.019665 0.0448242 0.02075 0.00075 
1155 1 0.0201573 0.0465721 0.0205081 0.0005 
1271 1 0.0224433 0.0431643 0.0205 0.0005 
1289 1 0.0193129 0.0460295 0.0205 0.0005 
1135 1 0.0209074 0.0425655 0.02075 0.00075 
1319 1 0.0172836 0.0462108 0.0207823 0.0005 
1334 1 0.0171203 0.0433725 0.0218952 0.0005 
917 1 0.0232358 0.0462735 0.0214617 0.00075 
963 1 0.0218955 0.0452178 0.0214434 0.0005 
1299 1 0.021246 0.0444003 0.0207583 0.00075 
1411 1 0.0191643 0.0443276 0.0222906 0.00075 
1426 1 0.0179035 0.0474066 0.020758 0.00075 
1384 1 0.0177325 0.048935 0.0210835 0.00075 
847 1 0.0232448 0.0444428 0.0221714 0.00075 
1494 1 0.0171009 0.0474089 0.0223879 0.00075 
3 1 0.00235235 0.0503397 0.0205 0.0005 
740 1 0.000506566 0.050511 0.0221615 0.0005 
354 1 0.00321777 0.0508501 0.0205 0.0005 
424 1 0.00772704 0.0503885 0.02075 0.00075 
265 1 0.00633963 0.050984 0.02075 0.00075 
145 1 0.00163121 0.0520335 0.0214999 0.0015 
704 1 0.00339739 0.0524345 0.0205 0.0005 
788 1 0.00532912 0.0515985 0.0219552 0.00075 
122 1 0.00152526 0.0546692 0.0209998 0.001 
866 1 0.000524035 0.0563047 0.0205 0.0005 
525 1 0.00161055 0.0560812 0.0205 0.0005 
230 1 0.00327454 0.0545573 0.0205 0.0005 
637 1 0.000505573 0.0556837 0.0214252 0.0005 
1382 1 0.00391166 0.0515741 0.0205052 0.0005 
1421 1 0.00141808 0.0538681 0.0223669 0.0005 
1453 1 0.00677392 0.0559329 0.0205528 0.0005 
551 1 0.00326023 0.0537807 0.0224221 0.00075 
371 1 0.0134322 0.0524807 0.0205 0.0005 
496 1 0.0087937 0.0514683 0.02075 0.00075 
977 1 0.0101182 0.0526931 0.0205 0.0005 
936 1 0.00917371 0.0567158 0.0205 0.0005 
1151 1 0.0147801 0.0529179 0.0205 0.0005 
792 1 0.0151623 0.0557655 0.0212499 0.00125 
1260 1 0.00893607 0.0549743 0.02125 0.00125 
1089 1 0.0134862 0.0554973 0.0205 0.0005 
278 1 0.0126265 0.055501 0.0211172 0.0005 
1471 1 0.011612 0.0527422 0.0224114 0.001 
1363 1 0.0177394 0.0502918 0.0205 0.0005 
410 1 0.0188622 0.0503193 0.0205 0.0005 
168 1 0.0224956 0.0505313 0.0215007 0.0015 
467 1 0.0161759 0.0537638 0.0214806 0.001 
133 1 0.0184503 0.0516882 0.0205886 0.0005 
769 1 0.0208277 0.0510697 0.0205 0.0005 
976 1 0.0174586 0.0539114 0.0205 0.0005 
776 1 0.0182555 0.0527853 0.0205 0.0005 
702 1 0.0225882 0.0524277 0.0205 0.0005 
415 1 0.0234886 0.0529926 0.0205 0.0005 
431 1 0.0173634 0.0553225 0.0209999 0.001 
573 1 0.0202517 0.0527133 0.0214999 0.0015 
73 1 0.0222239 0.0547603 0.0209999 0.001 
470 1 0.0209859 0.0554884 0.0205 0.0005 
258 1 0.0198846 0.0559719 0.0205 0.0005 
785 1 0.0186637 0.054162 0.0207499 0.00075 
661 1 0.0197202 0.0551443 0.0217401 0.001 
1102 1 0.0234975 0.0519488 0.020501 0.0005 
1005 1 0.0234569 0.0538386 0.0211982 0.0005 
649 1 0.0166695 0.0566504 0.0208959 0.0005 
1146 1 0.0189165 0.0557038 0.0205 0.0005 
690 1 0.0196329 0.0509966 0.0205 0.0005 
829 1 0.0178654 0.0530947 0.0216536 0.00075 
1031 1 0.019165 0.0567333 0.0222449 0.00075 
777 1 0.0207865 0.0544256 0.0205989 0.0005 
1200 1 0.0203205 0.0506108 0.0212372 0.0005 
1169 1 0.017281 0.0562543 0.0221751 0.0005 
1009 1 0.0213669 0.0545565 0.0222282 0.0005 
112 1 0.0232451 0.0562091 0.0211381 0.00075 
194 1 0.000874232 0.0570434 0.0215829 0.00075 
357 1 0.000503374 0.0575826 0.0205029 0.0005 
567 1 0.00173426 0.057078 0.0205 0.0005 
489 1 0.00785348 0.058798 0.0217747 0.00175 
773 1 0.0058145 0.0586876 0.0205 0.0005 
510 1 0.00124996 0.0589794 0.0212499 0.00125 
331 1 0.000499997 0.06057 0.0205 0.0005 
94 1 0.00623645 0.0609152 0.0210012 0.001 
1199 1 0.00503649 0.0617717 0.0205 0.0005 
361 1 0.00669122 0.0622535 0.0204998 0.0005 
116 1 0.00757762 0.0613782 0.0205018 0.0005 
378 1 0.00112851 0.0619434 0.021003 0.001 
899 1 0.00526849 0.0627413 0.0206013 0.0005 
421 1 0.00193671 0.0632665 0.0205 0.0005 
244 1 0.000501619 0.0632122 0.0205013 0.0005 
379 1 0.00618168 0.0631457 0.0205 0.0005 
267 1 0.000500148 0.0606366 0.0215036 0.0005 
665 1 0.0032988 0.0607965 0.0214995 0.0015 
922 1 0.000519437 0.0615883 0.0223859 0.0005 
1054 1 0.0103425 0.0569905 0.0216822 0.0005 
781 1 0.00822314 0.0606134 0.0204993 0.0005 
24 1 0.00813355 0.0628392 0.0212988 0.00125 
923 1 0.0105215 0.0569123 0.0205 0.0005 
88 1 0.00992127 0.0579381 0.0205 0.0005 
1156 1 0.0150237 0.0575315 0.0212862 0.0005 
907 1 0.0087678 0.0612425 0.0216462 0.0005 
1115 1 0.015341 0.0580629 0.0205002 0.0005 
147 1 0.010965 0.0580207 0.0205 0.0005 
771 1 0.00968958 0.063295 0.0205 0.0005 
11 1 0.0119938 0.0572107 0.02075 0.00075 
81 1 0.0116688 0.0591919 0.0207496 0.00075 
493 1 0.0131468 0.0601814 0.0206547 0.0005 
760 1 0.0137725 0.0618602 0.0205 0.0005 
1010 1 0.014957 0.0610544 0.0205 0.0005 
580 1 0.0143246 0.059771 0.0207545 0.00075 
1127 1 0.010312 0.0589208 0.0213326 0.00075 
1171 1 0.00943552 0.0605112 0.0207917 0.00075 
593 1 0.0134967 0.0571154 0.02075 0.00075 
1218 1 0.0106515 0.0599785 0.0205 0.0005 
1237 1 0.0116024 0.0582347 0.0215495 0.0005 
1327 1 0.0147142 0.0587684 0.0218168 0.00075 
1322 1 0.0125743 0.058354 0.0205 0.0005 
1248 1 0.0160396 0.0605281 0.0217682 0.0005 
1255 1 0.0121366 0.0607643 0.0214227 0.0005 
1354 1 0.0133476 0.0611788 0.0222549 0.001 
1393 1 0.0143742 0.0600032 0.022386 0.0005 
1079 1 0.0178395 0.0569327 0.0204998 0.0005 
8 1 0.0179663 0.0571973 0.0214557 0.0005 
711 1 0.016042 0.0573447 0.0205 0.0005 
653 1 0.0171606 0.0577559 0.0205 0.0005 
306 1 0.0191131 0.0569231 0.02075 0.00075 
716 1 0.016094 0.0614561 0.020509 0.0005 
48 1 0.0209953 0.0570101 0.0214874 0.00125 
863 1 0.0232494 0.0580963 0.0218032 0.00075 
414 1 0.0161852 0.0592482 0.0209993 0.001 
445 1 0.0231452 0.0598174 0.0205497 0.0005 
26 1 0.0182421 0.0626832 0.0218298 0.00175 
222 1 0.0214166 0.0597204 0.0205 0.0005 
186 1 0.0231683 0.0609587 0.0205048 0.0005 
455 1 0.0189272 0.0592103 0.0217499 0.00175 
129 1 0.0197644 0.0616443 0.0205 0.0005 
45 1 0.0227219 0.0624821 0.0212499 0.00125 
313 1 0.0209454 0.0608837 0.0207959 0.00075 
477 1 0.0211761 0.0620904 0.0205 0.0005 
595 1 0.0171661 0.0606771 0.02075 0.00075 
851 1 0.021024 0.0621906 0.0215574 0.0005 
778 1 0.0162162 0.0625515 0.0206097 0.0005 
38 1 0.0210041 0.0633745 0.0207508 0.00075 
502 1 0.0166577 0.057618 0.0220559 0.001 
438 1 0.0202977 0.0617739 0.0224578 0.0005 
1045 1 0.0170479 0.0606644 0.0222546 0.0005 
1456 1 0.0226411 0.0571745 0.0205087 0.0005 
446 1 0.00382428 0.0639893 0.0217931 0.00175 
381 1 0.00118713 0.0639939 0.0211994 0.00075 
165 1 0.00115749 0.0650294 0.0205006 0.0005 
619 1 0.00640808 0.0645328 0.0210251 0.001 
1076 1 0.00547507 0.0659017 0.0212545 0.0005 
574 1 0.00782322 0.0643912 0.0205076 0.0005 
105 1 0.000513511 0.0658528 0.0205 0.0005 
218 1 0.00206099 0.0660195 0.0212244 0.001 
694 1 0.0039639 0.0666191 0.0209999 0.001 
806 1 0.00551295 0.0673962 0.0212603 0.00075 
634 1 0.000749859 0.0670727 0.0207473 0.00075 
948 1 0.00594323 0.0700835 0.0205011 0.0005 
667 1 0.00794806 0.0658087 0.0210004 0.001 
264 1 0.000500116 0.0682742 0.0205001 0.0005 
601 1 0.00237742 0.0687293 0.0217746 0.00175 
7 1 0.000500143 0.069275 0.0205001 0.0005 
226 1 0.000799966 0.0704467 0.0208185 0.00075 
86 1 0.0072862 0.0705358 0.0209992 0.001 
532 1 0.00765676 0.0681844 0.0217591 0.0015 
96 1 0.00050272 0.0700412 0.0220634 0.0005 
953 1 0.00517214 0.0691127 0.0216621 0.001 
894 1 0.00649224 0.0662281 0.0211546 0.0005 
1163 1 0.000543128 0.0662979 0.022093 0.0005 
843 1 0.00347777 0.070666 0.0222901 0.0005 
1034 1 0.00308544 0.0666552 0.022287 0.0005 
854 1 0.000497235 0.067503 0.0218899 0.0005 
1279 1 0.00616764 0.0699234 0.0225036 0.0005 
373 1 0.0108339 0.0639025 0.02075 0.00075 
860 1 0.00930043 0.0645455 0.02075 0.00075 
540 1 0.0160295 0.0682051 0.0212543 0.00125 
703 1 0.0119414 0.0663039 0.0205015 0.0005 
926 1 0.0118182 0.0674346 0.0205011 0.0005 
187 1 0.010889 0.0703784 0.0205 0.0005 
736 1 0.0104292 0.0684771 0.0205 0.0005 
103 1 0.0102452 0.0666902 0.0214995 0.0015 
325 1 0.0138691 0.0690879 0.0205 0.0005 
1071 1 0.0145241 0.0698738 0.0220208 0.0005 
720 1 0.00990359 0.0696545 0.0207651 0.00075 
1185 1 0.014111 0.0700938 0.0205 0.0005 
102 1 0.014855 0.0692623 0.0205 0.0005 
1283 1 0.0139397 0.0680851 0.0205 0.0005 
1039 1 0.0116146 0.0693951 0.0207624 0.00075 
1304 1 0.0123154 0.0683045 0.0205 0.0005 
817 1 0.0123884 0.0678955 0.0219545 0.001 
1316 1 0.0106042 0.068709 0.0216389 0.0005 
795 1 0.00915189 0.0699526 0.0220545 0.00075 
796 1 0.00847003 0.0659857 0.0224274 0.0005 
1433 1 0.0154705 0.0646401 0.0215353 0.00075 
1428 1 0.0165479 0.0646657 0.0207812 0.0005 
140 1 0.0162686 0.0700035 0.0205046 0.0005 
1125 1 0.0175982 0.0685418 0.0205034 0.0005 
564 1 0.0235002 0.0640222 0.0215402 0.0005 
179 1 0.0233702 0.064106 0.0205 0.0005 
1160 1 0.0167837 0.0662259 0.0207687 0.00075 
1204 1 0.0178369 0.0669538 0.0205022 0.0005 
1126 1 0.0189739 0.0674176 0.020754 0.00075 
271 1 0.0214393 0.0646163 0.0205 0.0005 
344 1 0.0178164 0.0648987 0.0207526 0.00075 
696 1 0.019023 0.0643554 0.0205 0.0005 
84 1 0.0227505 0.0655763 0.0212496 0.00125 
964 1 0.0176215 0.0698662 0.0207506 0.00075 
411 1 0.0207829 0.0656509 0.0207501 0.00075 
469 1 0.0203534 0.0644099 0.0204993 0.0005 