ITEM: TIMESTEP
640000
ITEM: NUMBER OF ATOMS
2734
ITEM: BOX BOUNDS mm mm mm
-2.4e-06 0.0240024
-7.8e-06 0.0780078
-3e-06 0.030003
ITEM: ATOMS id type x y z radius 
1 1 0.00335069 0.00226527 0.0214998 0.0015 
2 1 0.000499981 0.00163249 0.0205 0.0005 
3 1 0.00530193 0.00445882 0.0207497 0.00075 
4 1 0.00466783 0.000499982 0.0205 0.0005 
5 1 0.00420015 0.00377663 0.0205 0.0005 
6 1 0.00267176 0.000499994 0.0205 0.0005 
7 1 0.00453881 0.00600915 0.0205 0.0005 
8 1 0.000499989 0.000520365 0.0205 0.0005 
9 1 0.00100005 0.00295532 0.0209999 0.001 
10 1 0.00709836 0.00581013 0.0205 0.0005 
11 1 0.0036698 0.000562571 0.0205 0.0005 
12 1 0.000523583 0.00528225 0.0205 0.0005 
13 1 0.00619778 0.00356195 0.0214522 0.0005 
14 1 0.00496998 0.00164849 0.0205 0.0005 
15 1 0.0013285 0.00633518 0.0205 0.0005 
16 1 0.00596791 0.00157987 0.0205 0.0005 
17 1 0.00050145 0.00428248 0.0205 0.0005 
18 1 0.00535708 0.00295994 0.0207499 0.00075 
19 1 0.00594739 0.000499978 0.0215872 0.0005 
20 1 0.00566786 0.000499991 0.0205 0.0005 
21 1 0.000748525 0.000499995 0.0214683 0.0005 
22 1 0.00691821 0.00235268 0.0207499 0.00075 
23 1 0.00159232 0.00107864 0.0207499 0.00075 
24 1 0.00686188 0.000749943 0.0207725 0.00075 
25 1 0.0031718 0.00398812 0.0205 0.0005 
27 1 0.00267716 0.00485917 0.0205 0.0005 
28 1 0.00222879 0.00365546 0.0205 0.0005 
29 1 0.00182118 0.000749981 0.0221954 0.00075 
31 1 0.000536878 0.00158313 0.0214981 0.0005 
32 1 0.000500141 0.00622849 0.0210499 0.0005 
33 1 0.00164095 0.00457424 0.0211743 0.00075 
34 1 0.00649804 0.00350442 0.0205 0.0005 
36 1 0.00514435 0.000981148 0.0212357 0.0005 
37 1 0.0030414 0.00432377 0.021433 0.0005 
38 1 0.00428838 0.000500096 0.0214251 0.0005 
40 1 0.000499993 0.000500131 0.0224369 0.0005 
41 1 0.00756318 0.00339377 0.0205 0.0005 
42 1 0.00788654 0.00141174 0.0204999 0.0005 
43 1 0.00712349 0.00429182 0.0204999 0.0005 
1724 1 0.00576053 0.00609508 0.02075 0.00075 
1770 1 0.00197467 0.00557208 0.0204998 0.0005 
1665 1 0.00126883 0.00573499 0.0214575 0.0005 
1715 1 0.00508407 0.000499989 0.0221158 0.0005 
1926 1 0.00389256 0.00497343 0.0207684 0.00075 
1662 1 0.00664426 0.0049643 0.021752 0.001 
1735 1 0.00532332 0.00193721 0.0214677 0.0005 
1762 1 0.00642587 0.00159694 0.0219484 0.00075 
2008 1 0.00168308 0.00298007 0.0223414 0.0005 
2110 1 0.00500724 0.00147987 0.0222999 0.0005 
2030 1 0.000500022 0.00231427 0.0222604 0.0005 
2181 1 0.00525898 0.0067571 0.0216853 0.0005 
1610 1 0.00673507 0.00336145 0.0222713 0.0005 
1881 1 0.00726538 0.00258641 0.0219278 0.0005 
1977 1 0.0039969 0.000500002 0.0223817 0.0005 
1700 1 0.00750153 0.00675498 0.0219926 0.001 
139 1 0.00728463 0.00679265 0.0205 0.0005 
2188 1 0.00554992 0.00275602 0.0219951 0.0005 
102 1 0.00490419 0.0070243 0.0205 0.0005 
44 1 0.00817741 0.00629806 0.0205 0.0005 
1633 1 0.00843215 0.00388854 0.0205 0.0005 
1806 1 0.00807759 0.00506088 0.02075 0.00075 
99 1 0.00930305 0.0055781 0.021443 0.0005 
45 1 0.00905511 0.00579868 0.0204999 0.0005 
46 1 0.00927741 0.00475075 0.0205 0.0005 
47 1 0.0115227 0.00423232 0.0205 0.0005 
48 1 0.010044 0.00251163 0.0205 0.0005 
49 1 0.013742 0.00237268 0.02075 0.00075 
50 1 0.0100688 0.0015068 0.0205 0.0005 
51 1 0.0102969 0.000499977 0.0205 0.0005 
52 1 0.0125301 0.000499948 0.0204999 0.0005 
53 1 0.011022 0.00119002 0.0205 0.0005 
54 1 0.00829683 0.00049991 0.0205 0.0005 
55 1 0.0108559 0.00517059 0.0204999 0.0005 
56 1 0.013314 0.004022 0.0205 0.0005 
57 1 0.00842016 0.00251398 0.0207499 0.00075 
58 1 0.0109162 0.00640618 0.0205 0.0005 
59 1 0.0100875 0.00581039 0.0205 0.0005 
60 1 0.0125208 0.00564803 0.0214999 0.0015 
61 1 0.0104047 0.0010345 0.0216247 0.00075 
62 1 0.00906902 0.00147509 0.0205 0.0005 
63 1 0.00938743 0.00326747 0.0205 0.0005 
64 1 0.014251 0.00555796 0.0205 0.0005 
66 1 0.0148952 0.00411309 0.0212498 0.00125 
67 1 0.00929679 0.000501269 0.0205 0.0005 
68 1 0.0116219 0.00265297 0.0212499 0.00125 
69 1 0.0137284 0.00075227 0.02075 0.00075 
70 1 0.010308 0.00407535 0.0207499 0.00075 
71 1 0.0116196 0.000502892 0.0209132 0.0005 
72 1 0.0127963 0.00158729 0.0205 0.0005 
75 1 0.0157139 0.00149984 0.0214999 0.0015 
65 1 0.0139348 0.00688092 0.0205 0.0005 
2063 1 0.0127452 0.000523224 0.0214889 0.0005 
2015 1 0.0102156 0.00520203 0.0212832 0.0005 
143 1 0.0148252 0.00637722 0.0205 0.0005 
1828 1 0.0133431 0.00164554 0.0222913 0.001 
1644 1 0.0103934 0.00584668 0.0223394 0.00075 
1941 1 0.0118791 0.000945591 0.0217793 0.0005 
2441 1 0.00966672 0.00205707 0.0215077 0.0005 
1608 1 0.0159288 0.00575872 0.02075 0.00075 
2355 1 0.00880381 0.00601381 0.0221925 0.0005 
2090 1 0.0110164 0.0043504 0.0217424 0.0005 
2263 1 0.0111057 0.00697034 0.021999 0.0005 
2046 1 0.0147282 0.00604899 0.0217248 0.00075 
1623 1 0.0159892 0.00530735 0.021914 0.0005 
2268 1 0.0118567 0.00397559 0.0223728 0.0005 
74 1 0.0164081 0.00462877 0.0205 0.0005 
76 1 0.0221872 0.000751426 0.02075 0.00075 
77 1 0.0234999 0.00515095 0.0205 0.0005 
78 1 0.0204727 0.00100006 0.0209999 0.001 
79 1 0.0232489 0.00181445 0.0207497 0.00075 
81 1 0.0207356 0.00271496 0.02075 0.00075 
82 1 0.0205424 0.00470472 0.0205 0.0005 
83 1 0.0188447 0.00159111 0.0207499 0.00075 
84 1 0.0216149 0.00185192 0.0205 0.0005 
85 1 0.0172885 0.000500013 0.0205003 0.0005 
86 1 0.0234941 0.000511701 0.0205 0.0005 
87 1 0.0211183 0.00387838 0.0205 0.0005 
88 1 0.0182885 0.000499965 0.0205 0.0005 
89 1 0.0218846 0.0018727 0.0217203 0.00075 
90 1 0.0209415 0.00586373 0.02075 0.00075 
91 1 0.0197171 0.005895 0.0205 0.0005 
92 1 0.0224507 0.00405034 0.0205016 0.0005 
93 1 0.0219771 0.00315165 0.0205 0.0005 
95 1 0.0234847 0.00415051 0.0205 0.0005 
97 1 0.0173513 0.00595655 0.0205 0.0005 
182 1 0.02325 0.0063564 0.02075 0.00075 
1643 1 0.0210698 0.0044383 0.0213271 0.0005 
1663 1 0.0215729 0.00477013 0.0205002 0.0005 
1901 1 0.020156 0.00627332 0.0216677 0.0005 
1650 1 0.0222735 0.00528034 0.0217253 0.001 
2044 1 0.0168844 0.00277647 0.0205 0.0005 
1612 1 0.022998 0.0032809 0.0216701 0.001 
187 1 0.0221848 0.00696084 0.0205 0.0005 
2221 1 0.0222543 0.000499992 0.0219725 0.0005 
1629 1 0.0184895 0.00416476 0.0222498 0.00225 
1979 1 0.0217191 0.00665229 0.0213294 0.0005 
2364 1 0.0190985 0.00050057 0.0213446 0.0005 
2071 1 0.0180881 0.00109312 0.0219473 0.00075 
2447 1 0.0215542 0.00354299 0.0213452 0.0005 
2462 1 0.0211057 0.00618975 0.0219695 0.0005 
2334 1 0.0194955 0.00134234 0.0224131 0.00075 
35 1 0.000524146 0.00775894 0.0219431 0.0005 
1682 1 0.00303051 0.00711613 0.0217499 0.00175 
26 1 0.000751076 0.00741574 0.02075 0.00075 
100 1 0.006109 0.00779173 0.0209998 0.001 
101 1 0.00126449 0.00857709 0.0205059 0.0005 
103 1 0.00173783 0.01045 0.0204999 0.0005 
104 1 0.00233956 0.00932237 0.02075 0.00075 
105 1 0.00708593 0.0119078 0.0205 0.0005 
106 1 0.00349878 0.00892738 0.0204999 0.0005 
107 1 0.00270654 0.0120036 0.0205 0.0005 
108 1 0.00440346 0.0110136 0.02075 0.00075 
109 1 0.00050025 0.0109988 0.0205 0.0005 
110 1 0.00508292 0.00999468 0.0205 0.0005 
111 1 0.00141103 0.0114121 0.0205 0.0005 
112 1 0.00383754 0.012475 0.0207499 0.00075 
113 1 0.0059674 0.0102672 0.0213401 0.00075 
114 1 0.00496018 0.0120696 0.0211209 0.0005 
116 1 0.00274779 0.0131481 0.0205 0.0005 
118 1 0.00049999 0.0130632 0.0205 0.0005 
119 1 0.00358951 0.0136885 0.0205 0.0005 
122 1 0.00578697 0.0122284 0.0205 0.0005 
124 1 0.00574648 0.011215 0.0205 0.0005 
125 1 0.00500373 0.0128524 0.0205 0.0005 
126 1 0.00340311 0.0132051 0.0216668 0.0005 
128 1 0.00721792 0.0132581 0.0205001 0.0005 
129 1 0.00583015 0.0134155 0.0205 0.0005 
130 1 0.00163991 0.0126153 0.02075 0.00075 
131 1 0.000506507 0.0120626 0.0205 0.0005 
132 1 0.00625225 0.00921187 0.0205 0.0005 
133 1 0.00397006 0.0098679 0.0205001 0.0005 
134 1 0.000749935 0.00972629 0.0207502 0.00075 
136 1 0.00162775 0.00985052 0.0216313 0.0005 
137 1 0.00241324 0.0130711 0.0216198 0.0005 
138 1 0.000499986 0.00857085 0.0211563 0.0005 
140 1 0.000500058 0.0136226 0.0213288 0.0005 
141 1 0.00780712 0.00813395 0.02075 0.00075 
1822 1 0.00293636 0.0107014 0.0207504 0.00075 
154 1 0.00729202 0.0106505 0.0207499 0.00075 
1865 1 0.000522713 0.0117045 0.0214335 0.0005 
1780 1 0.00471915 0.00882526 0.0207501 0.00075 
222 1 0.00660471 0.014048 0.0205 0.0005 
1934 1 0.00359723 0.0122422 0.0219543 0.0005 
120 1 0.00478123 0.0140568 0.02075 0.00075 
1893 1 0.00375832 0.00951147 0.0216795 0.00075 
1655 1 0.00703074 0.00920026 0.0214834 0.00075 
1805 1 0.00242763 0.0117508 0.0216937 0.00075 
1890 1 0.00117093 0.0107931 0.0212488 0.0005 
1970 1 0.00464711 0.011234 0.021956 0.0005 
2119 1 0.00143478 0.00882908 0.0214696 0.0005 
1739 1 0.00113321 0.0128057 0.0224161 0.001 
2433 1 0.00229786 0.0139363 0.0223906 0.0005 
163 1 0.00836412 0.011863 0.0207498 0.00075 
183 1 0.0152148 0.00729844 0.0205 0.0005 
148 1 0.00839373 0.013552 0.0208059 0.00075 
142 1 0.0136342 0.00817195 0.0205 0.0005 
144 1 0.00969433 0.0103754 0.0205 0.0005 
145 1 0.0125109 0.00815954 0.0205 0.0005 
147 1 0.0130286 0.00730401 0.0205 0.0005 
149 1 0.00955436 0.00729894 0.0212498 0.00125 
150 1 0.0114809 0.00749704 0.02075 0.00075 
151 1 0.0115423 0.00904663 0.0207499 0.00075 
152 1 0.0103712 0.00867043 0.0205 0.0005 
153 1 0.0109567 0.0104932 0.02075 0.00075 
155 1 0.0115706 0.011864 0.0207524 0.00075 
156 1 0.00947687 0.0113515 0.0205 0.0005 
158 1 0.00871889 0.0106908 0.0205 0.0005 
159 1 0.0130264 0.00901631 0.0205 0.0005 
160 1 0.0103466 0.0118449 0.0205 0.0005 
164 1 0.00959415 0.0133842 0.0205 0.0005 
165 1 0.00947211 0.0123899 0.0205 0.0005 
166 1 0.0107964 0.0131485 0.0207499 0.00075 
167 1 0.00932518 0.00886381 0.0205 0.0005 
168 1 0.0123029 0.013173 0.0207499 0.00075 
169 1 0.0121854 0.0108054 0.0205 0.0005 
170 1 0.0136105 0.0106818 0.0209999 0.001 
171 1 0.00831757 0.00954388 0.0207928 0.00075 
172 1 0.0118047 0.0109557 0.0219229 0.00075 
173 1 0.0127943 0.0118365 0.0204999 0.0005 
174 1 0.0134011 0.0126311 0.0204998 0.0005 
175 1 0.00925229 0.0108796 0.0213561 0.0005 
176 1 0.00898302 0.0126738 0.0214723 0.0005 
177 1 0.00829122 0.0106444 0.0215009 0.0005 
179 1 0.0124694 0.00984671 0.0204999 0.0005 
180 1 0.0127533 0.0121121 0.0217183 0.00075 
184 1 0.0146558 0.00962394 0.0211922 0.0005 
1640 1 0.0111084 0.00831864 0.0219872 0.00075 
1732 1 0.00986298 0.00953526 0.0217311 0.001 
181 1 0.013982 0.00931062 0.0205 0.0005 
191 1 0.0149759 0.00849962 0.0207499 0.00075 
1614 1 0.0101805 0.0119164 0.0219931 0.001 
192 1 0.0150998 0.0108068 0.0204999 0.0005 
1815 1 0.0150909 0.0104891 0.0214479 0.0005 
1740 1 0.0159844 0.0108827 0.0212312 0.0005 
325 1 0.013396 0.0137352 0.0205 0.0005 
1676 1 0.0129434 0.0106561 0.0223435 0.0005 
1592 1 0.0153227 0.0131845 0.0219999 0.002 
2095 1 0.0122091 0.00986156 0.0214653 0.0005 
1831 1 0.00836824 0.00848768 0.0218094 0.0005 
1916 1 0.015462 0.0091809 0.0218091 0.0005 
1929 1 0.0145119 0.0108272 0.0221901 0.0005 
201 1 0.0158187 0.00974044 0.0207498 0.00075 
1775 1 0.0115419 0.0136636 0.0216116 0.0005 
1888 1 0.00817665 0.0097041 0.0223165 0.00075 
2223 1 0.0127671 0.0136685 0.0218015 0.0005 
2037 1 0.0113522 0.00958813 0.0219023 0.0005 
1920 1 0.00977867 0.014124 0.0221684 0.00125 
1793 1 0.0135326 0.0115088 0.022489 0.0005 
80 1 0.0199501 0.00709724 0.0207505 0.00075 
96 1 0.0206713 0.00712344 0.021917 0.0005 
94 1 0.0185832 0.00717475 0.0205 0.0005 
178 1 0.0170511 0.012179 0.0204998 0.0005 
185 1 0.0234991 0.00761954 0.0205 0.0005 
186 1 0.0169141 0.00763741 0.0214999 0.0015 
188 1 0.0226927 0.0072601 0.0218243 0.00075 
189 1 0.0235 0.00967705 0.0205 0.0005 
190 1 0.0213581 0.00810288 0.021012 0.001 
193 1 0.017858 0.0131002 0.02075 0.00075 
194 1 0.0191334 0.00800991 0.0205 0.0005 
196 1 0.0202393 0.00930463 0.0214278 0.0005 
197 1 0.0187903 0.00938228 0.0209999 0.001 
198 1 0.0163419 0.0114636 0.0205 0.0005 
199 1 0.0173781 0.00930607 0.0204999 0.0005 
200 1 0.0230002 0.0109978 0.021016 0.001 
202 1 0.0206122 0.00930312 0.0205 0.0005 
203 1 0.0171112 0.010501 0.0207515 0.00075 
204 1 0.0177979 0.0115143 0.0204998 0.0005 
205 1 0.0200728 0.0129583 0.0204999 0.0005 
206 1 0.0212997 0.0113128 0.0207499 0.00075 
207 1 0.0234619 0.0123284 0.0205 0.0005 
208 1 0.0234891 0.00864444 0.0205 0.0005 
209 1 0.0198813 0.00835617 0.0210809 0.0005 
210 1 0.022187 0.0125243 0.02075 0.00075 
211 1 0.02047 0.0102949 0.0205 0.0005 
212 1 0.0224316 0.0140041 0.0207498 0.00075 
213 1 0.0209608 0.0124984 0.0204999 0.0005 
214 1 0.0234992 0.0133325 0.0205 0.0005 
215 1 0.0213537 0.0134218 0.0205 0.0005 
216 1 0.0217694 0.0097832 0.0207497 0.00075 
217 1 0.0172251 0.0116225 0.0213124 0.0005 
218 1 0.0210652 0.0125038 0.0217454 0.00075 
219 1 0.0231473 0.0132498 0.0214433 0.0005 
221 1 0.0235001 0.0123176 0.0215238 0.0005 
324 1 0.0190827 0.0130978 0.0205 0.0005 
1626 1 0.0193773 0.0115396 0.0212521 0.00125 
1691 1 0.0229702 0.00927133 0.021559 0.00075 
1684 1 0.0218555 0.0114953 0.0218545 0.0005 
1915 1 0.023499 0.00814651 0.0213965 0.0005 
220 1 0.0201358 0.0133227 0.021429 0.0005 
2005 1 0.0208716 0.0103272 0.0218208 0.00075 
1851 1 0.0192656 0.0074484 0.0223273 0.001 
1835 1 0.0178396 0.0123026 0.0217122 0.0005 
2211 1 0.018265 0.0135846 0.021828 0.0005 
1968 1 0.0191621 0.0135507 0.0213879 0.0005 
328 1 0.0189522 0.0140895 0.0205596 0.0005 
2149 1 0.0197367 0.0100431 0.0222608 0.0005 
326 1 0.0204642 0.0138784 0.0205 0.0005 
330 1 0.0171143 0.0140732 0.0204999 0.0005 
2244 1 0.0235 0.0110775 0.022428 0.0005 
329 1 0.0175536 0.0141387 0.0213959 0.0005 
2289 1 0.0209989 0.0114338 0.0223878 0.0005 
123 1 0.000499997 0.0141826 0.0205 0.0005 
117 1 0.00367943 0.0147102 0.0204991 0.0005 
121 1 0.001906 0.0143394 0.0209999 0.001 
223 1 0.00446838 0.0153461 0.0205 0.0005 
224 1 0.00284956 0.0153932 0.0205 0.0005 
225 1 0.00224301 0.0163415 0.0205 0.0005 
226 1 0.00604305 0.0155253 0.0212514 0.00125 
227 1 0.00148459 0.0156895 0.0205 0.0005 
228 1 0.000516725 0.0151825 0.0205001 0.0005 
229 1 0.000500004 0.0161824 0.0205 0.0005 
230 1 0.00454877 0.0173151 0.0205 0.0005 
231 1 0.00283021 0.0175097 0.0205001 0.0005 
232 1 0.00125011 0.0175743 0.02125 0.00125 
233 1 0.00650139 0.0172005 0.0205009 0.0005 
234 1 0.00536602 0.0182279 0.02075 0.00075 
235 1 0.000500005 0.0189781 0.0205 0.0005 
236 1 0.00346197 0.0164603 0.02075 0.00075 
237 1 0.00550205 0.0170105 0.0205 0.0005 
238 1 0.00433533 0.0158684 0.0214203 0.0005 
239 1 0.00467905 0.0163236 0.0205 0.0005 
240 1 0.00262163 0.0184886 0.0205 0.0005 
241 1 0.000871825 0.0156924 0.0212904 0.0005 
242 1 0.000504099 0.0200726 0.0214955 0.0005 
243 1 0.00350877 0.0189501 0.0205 0.0005 
244 1 0.0044359 0.0193452 0.0205 0.0005 
245 1 0.00601212 0.0173453 0.0213629 0.0005 
246 1 0.00331452 0.019931 0.0205 0.0005 
247 1 0.00190846 0.0197113 0.0210002 0.001 
248 1 0.00455524 0.0189255 0.0213998 0.0005 
249 1 0.007207 0.0201537 0.0205 0.0005 
250 1 0.00381997 0.0179998 0.0205 0.0005 
256 1 0.00728171 0.0185766 0.0212547 0.00125 
255 1 0.00768641 0.0164252 0.0222282 0.00075 
392 1 0.00569824 0.0196909 0.0207501 0.00075 
443 1 0.00448452 0.0205756 0.0207498 0.00075 
1846 1 0.00350752 0.0195421 0.0216908 0.00075 
393 1 0.00314246 0.0209164 0.0205 0.0005 
1615 1 0.00505775 0.0170016 0.0213958 0.0005 
259 1 0.00760549 0.0166686 0.02075 0.00075 
395 1 0.000500288 0.0199781 0.0205 0.0005 
1616 1 0.00369803 0.0146385 0.0219962 0.001 
1802 1 0.00502537 0.0210407 0.0217763 0.0005 
411 1 0.000504328 0.021002 0.0205001 0.0005 
390 1 0.00667104 0.0204718 0.0215839 0.00075 
444 1 0.00347505 0.0207719 0.0214685 0.0005 
1636 1 0.00241983 0.0209563 0.022122 0.00075 
432 1 0.00566357 0.0209212 0.0209943 0.0005 
261 1 0.00762176 0.015444 0.0204999 0.0005 
1804 1 0.00315884 0.0180878 0.0215587 0.00075 
2055 1 0.00439834 0.0179419 0.0214878 0.0005 
1908 1 0.00415633 0.0169906 0.0222617 0.00075 
391 1 0.00723014 0.0211617 0.0204999 0.0005 
1784 1 0.00555845 0.0168771 0.0222541 0.0005 
146 1 0.00753039 0.0144283 0.0205 0.0005 
2106 1 0.000846364 0.015526 0.0222764 0.0005 
2329 1 0.000901949 0.0211404 0.0214103 0.0005 
1937 1 0.00539802 0.0195545 0.0224694 0.001 
1766 1 0.00731491 0.0152468 0.0224208 0.0005 
2215 1 0.00251755 0.0189406 0.0222101 0.0005 
2087 1 0.00578341 0.0179314 0.0221413 0.0005 
1971 1 0.00259031 0.0162363 0.0224652 0.001 
302 1 0.00798846 0.0155045 0.0214282 0.0005 
161 1 0.0093013 0.0143551 0.0205 0.0005 
1697 1 0.00815052 0.0147586 0.0220743 0.0005 
1855 1 0.0111152 0.0143847 0.0210657 0.0005 
162 1 0.010299 0.0142677 0.0205 0.0005 
252 1 0.0119864 0.0143561 0.0204999 0.0005 
254 1 0.0128707 0.0148864 0.0205 0.0005 
257 1 0.0121152 0.0149036 0.021616 0.00075 
258 1 0.0113563 0.0151732 0.0204999 0.0005 
260 1 0.0132449 0.014368 0.0212698 0.0005 
262 1 0.0139057 0.0145955 0.0204998 0.0005 
263 1 0.0122319 0.015656 0.0205 0.0005 
264 1 0.0101676 0.0185473 0.0205 0.0005 
265 1 0.00941421 0.0192048 0.0204999 0.0005 
267 1 0.0138065 0.0161733 0.0212497 0.00125 
268 1 0.0112726 0.0182323 0.0205 0.0005 
269 1 0.00987566 0.0151736 0.0205 0.0005 
270 1 0.0121652 0.0190834 0.0207499 0.00075 
271 1 0.0122992 0.0166538 0.0205001 0.0005 
272 1 0.0151137 0.0188972 0.0204999 0.0005 
273 1 0.0103016 0.0160782 0.0205 0.0005 
274 1 0.0109442 0.0191772 0.0204999 0.0005 
275 1 0.0101908 0.0198347 0.0205 0.0005 
276 1 0.0132728 0.0201841 0.0216283 0.0005 
277 1 0.0114254 0.0200593 0.0205 0.0005 
278 1 0.0125079 0.0206387 0.02075 0.00075 
280 1 0.0115007 0.0172587 0.0205 0.0005 
281 1 0.0124527 0.0176805 0.0211963 0.00075 
282 1 0.0133063 0.01971 0.0205 0.0005 
283 1 0.0134931 0.0177234 0.0205 0.0005 
284 1 0.0133321 0.0187104 0.0205 0.0005 
285 1 0.0142652 0.0194264 0.0205 0.0005 
286 1 0.0142586 0.0184695 0.0207923 0.0005 
287 1 0.0131147 0.0189663 0.0219052 0.00075 
288 1 0.0118919 0.0161799 0.0212839 0.0005 
289 1 0.0150577 0.0200368 0.0205 0.0005 
290 1 0.0145631 0.0175625 0.0205 0.0005 
291 1 0.00917821 0.0182333 0.0205 0.0005 
292 1 0.0105205 0.0170539 0.0204999 0.0005 
293 1 0.0148274 0.0206096 0.0214228 0.0005 
294 1 0.0138772 0.0206334 0.0208644 0.0005 
295 1 0.00852886 0.0174729 0.0204999 0.0005 
296 1 0.0155402 0.0177781 0.0205 0.0005 
297 1 0.00893566 0.0159742 0.02075 0.00075 
298 1 0.0111106 0.0178949 0.0214274 0.0005 
300 1 0.0110619 0.0168994 0.0213263 0.0005 
301 1 0.0112802 0.0162833 0.0204999 0.0005 
303 1 0.0121179 0.019723 0.0218228 0.0005 
304 1 0.00987917 0.0166665 0.0211895 0.0005 
305 1 0.0136518 0.017903 0.0214709 0.0005 
306 1 0.0150214 0.0151615 0.0204999 0.0005 
307 1 0.00995826 0.0156916 0.0214114 0.0005 
308 1 0.0117672 0.0170386 0.0220213 0.0005 
309 1 0.012416 0.0206639 0.0219965 0.0005 
310 1 0.0121999 0.0159962 0.0222172 0.0005 
311 1 0.00951206 0.0172907 0.0204999 0.0005 
312 1 0.0101532 0.0177555 0.0211105 0.0005 
314 1 0.0112303 0.0161907 0.0220694 0.0005 
315 1 0.0104525 0.0193513 0.0219063 0.001 
316 1 0.0152488 0.0168215 0.0205 0.0005 
317 1 0.0159059 0.0195074 0.0205 0.0005 
319 1 0.0109463 0.0156801 0.021258 0.0005 
320 1 0.0156761 0.0159173 0.0204999 0.0005 
321 1 0.00901823 0.018788 0.0213183 0.0005 
322 1 0.014186 0.0198427 0.0214057 0.0005 
323 1 0.00860634 0.0169729 0.0214347 0.0005 
331 1 0.0158435 0.0165493 0.0212564 0.0005 
1603 1 0.00843401 0.0148568 0.0205 0.0005 
1637 1 0.00916805 0.0177995 0.0214009 0.0005 
1721 1 0.0155119 0.0156132 0.0214383 0.0005 
461 1 0.00871675 0.0206236 0.0212501 0.00125 
318 1 0.0117342 0.018578 0.0218097 0.0005 
313 1 0.0114655 0.0203817 0.0214481 0.0005 
279 1 0.0147396 0.0209847 0.0205 0.0005 
2191 1 0.0134067 0.0147748 0.0222226 0.0005 
465 1 0.0106198 0.0209817 0.02075 0.00075 
1997 1 0.0133928 0.0174767 0.022341 0.0005 
458 1 0.0102385 0.0208316 0.0220889 0.0005 
2002 1 0.00875013 0.0183584 0.022185 0.0005 
1886 1 0.011538 0.0205575 0.0224839 0.0005 
1729 1 0.0222138 0.0163834 0.0220599 0.0005 
327 1 0.0235001 0.0146024 0.0205 0.0005 
332 1 0.0235 0.0141848 0.0214087 0.0005 
333 1 0.0180271 0.0144891 0.0205 0.0005 
334 1 0.0215828 0.0148886 0.0205 0.0005 
336 1 0.0225721 0.0152224 0.0205 0.0005 
337 1 0.0170224 0.0154843 0.0209999 0.001 
338 1 0.0184365 0.0154706 0.0204999 0.0005 
339 1 0.0193425 0.0150109 0.0205 0.0005 
340 1 0.018582 0.0172038 0.0212804 0.0005 
341 1 0.0180983 0.0164116 0.0205 0.0005 
342 1 0.0173608 0.0183682 0.0205 0.0005 
343 1 0.0222271 0.0163975 0.02075 0.00075 
344 1 0.0179903 0.0174057 0.0205 0.0005 
345 1 0.0193443 0.0163672 0.0207499 0.00075 
346 1 0.0235 0.0176021 0.0205 0.0005 
347 1 0.0223122 0.0179003 0.0207501 0.00075 
348 1 0.0211542 0.0157921 0.0205 0.0005 
349 1 0.0201705 0.0174518 0.0204998 0.0005 
350 1 0.0183619 0.018334 0.0205 0.0005 
351 1 0.0190625 0.0176036 0.0204999 0.0005 
352 1 0.0234998 0.0186023 0.0205 0.0005 
353 1 0.0198771 0.0175416 0.0217113 0.00075 
354 1 0.0167831 0.0171997 0.0207499 0.00075 
355 1 0.0208856 0.0184463 0.0207499 0.00075 
356 1 0.0212568 0.0172792 0.0205 0.0005 
357 1 0.0196617 0.0184041 0.0204998 0.0005 
358 1 0.0235 0.0156023 0.0205 0.0005 
359 1 0.0203324 0.0148696 0.0204999 0.0005 
360 1 0.0188658 0.0181906 0.0213517 0.0005 
361 1 0.0203586 0.0198506 0.02075 0.00075 
362 1 0.0189205 0.0194239 0.0207499 0.00075 
363 1 0.0234935 0.0166022 0.0205 0.0005 
364 1 0.0224957 0.0200138 0.0214997 0.0015 
366 1 0.0205945 0.016616 0.0208483 0.0005 
367 1 0.0232499 0.0170726 0.0216395 0.00075 
368 1 0.0177612 0.0190845 0.0210714 0.0005 
369 1 0.0235 0.0182821 0.0214473 0.0005 
370 1 0.0197197 0.0187505 0.0214358 0.0005 
371 1 0.0176706 0.017884 0.0213183 0.0005 
373 1 0.0180426 0.0202726 0.0212043 0.0005 
374 1 0.0174699 0.0198532 0.0205 0.0005 
376 1 0.016361 0.0183495 0.0205 0.0005 
377 1 0.0230974 0.0155802 0.0216831 0.00075 
378 1 0.0206671 0.0208236 0.0214714 0.0005 
379 1 0.0167965 0.0191891 0.0208246 0.0005 
380 1 0.0213547 0.0169631 0.0214438 0.0005 
381 1 0.0206029 0.0188936 0.0218823 0.0005 
382 1 0.0234978 0.0185417 0.022413 0.0005 
383 1 0.0203333 0.0156803 0.0210851 0.0005 
385 1 0.0177126 0.0167388 0.021447 0.0005 
386 1 0.0197739 0.0142865 0.0210979 0.0005 
388 1 0.019941 0.0162644 0.0218435 0.0005 
1830 1 0.0215401 0.0180485 0.0220394 0.00075 
1972 1 0.0188186 0.015147 0.0219138 0.001 
526 1 0.0189933 0.020945 0.0207499 0.00075 
375 1 0.0165043 0.0211057 0.0212499 0.00125 
1906 1 0.0172663 0.0165777 0.0223272 0.0005 
2136 1 0.0234948 0.0144572 0.0223709 0.0005 
394 1 0.00513321 0.0216159 0.0205 0.0005 
396 1 0.00203726 0.0214496 0.0207519 0.00075 
397 1 0.00525938 0.0252743 0.0205 0.0005 
398 1 0.00586184 0.0242058 0.0207499 0.00075 
399 1 0.00450451 0.02288 0.0210069 0.001 
400 1 0.000751008 0.0222252 0.02075 0.00075 
401 1 0.00095612 0.0253611 0.0213682 0.0005 
402 1 0.000500016 0.0245534 0.0205 0.0005 
403 1 0.000500112 0.0255566 0.0205 0.0005 
404 1 0.00786112 0.0219612 0.0205 0.0005 
405 1 0.00242148 0.0250029 0.0204999 0.0005 
406 1 0.00536 0.0262692 0.0204999 0.0005 
407 1 0.00330798 0.024158 0.0207501 0.00075 
408 1 0.000500647 0.0234245 0.0205002 0.0005 
409 1 0.00671339 0.0254406 0.02075 0.00075 
410 1 0.00384824 0.0216258 0.0205 0.0005 
412 1 0.00164845 0.0239864 0.0212867 0.001 
413 1 0.00630676 0.0219661 0.0207501 0.00075 
415 1 0.00668029 0.0266858 0.0204999 0.0005 
416 1 0.0023617 0.0261442 0.0210059 0.00075 
417 1 0.00760913 0.0263155 0.0204999 0.0005 
418 1 0.00436227 0.0262039 0.0205 0.0005 
419 1 0.000500311 0.0246885 0.0219512 0.0005 
420 1 0.00680081 0.0276785 0.0205 0.0005 
421 1 0.00463973 0.0242851 0.0204999 0.0005 
422 1 0.00050073 0.0230822 0.0216262 0.0005 
423 1 0.000500017 0.0262483 0.0212222 0.0005 
424 1 0.00145184 0.0252489 0.0205 0.0005 
426 1 0.00277543 0.0227556 0.0207501 0.00075 
427 1 0.00705684 0.0263098 0.0219233 0.00075 
428 1 0.00122332 0.0262473 0.0205 0.0005 
429 1 0.00425815 0.0252094 0.0205004 0.0005 
430 1 0.00329715 0.0254858 0.0205 0.0005 
431 1 0.00603175 0.0264404 0.0212203 0.0005 
433 1 0.0014156 0.0273418 0.0205 0.0005 
434 1 0.00350478 0.0270167 0.0213849 0.0005 
435 1 0.00342714 0.0265578 0.0204999 0.0005 
436 1 0.00608876 0.023087 0.0217227 0.00075 
437 1 0.000500086 0.0272356 0.0214553 0.0005 
438 1 0.000499964 0.02694 0.0205 0.0005 
439 1 0.00136806 0.026282 0.022121 0.00075 
440 1 0.00446141 0.0270023 0.021094 0.0005 
442 1 0.00659298 0.0274597 0.0214533 0.0005 
445 1 0.00556029 0.027498 0.0207498 0.00075 
446 1 0.00655958 0.0231948 0.0205 0.0005 
447 1 0.000500272 0.0278638 0.0223393 0.0005 
450 1 0.00338823 0.0276041 0.0205 0.0005 
453 1 0.00708662 0.0242245 0.0205 0.0005 
454 1 0.00437346 0.0278024 0.0205 0.0005 
455 1 0.00744985 0.0271327 0.0210538 0.0005 
456 1 0.00322517 0.0217283 0.0213022 0.0005 
594 1 0.00241398 0.027286 0.0204999 0.0005 
629 1 0.00252685 0.0268942 0.0219984 0.0005 
1594 1 0.00775102 0.0243671 0.022113 0.00125 
522 1 0.00753938 0.0229426 0.0205324 0.0005 
463 1 0.00788356 0.0250766 0.0205 0.0005 
1824 1 0.00545916 0.0219361 0.021676 0.0005 
615 1 0.0027764 0.0277 0.0213347 0.0005 
1857 1 0.0014785 0.021979 0.02174 0.0005 
1939 1 0.00574597 0.0274231 0.0219837 0.0005 
1917 1 0.00417615 0.0215098 0.0215212 0.0005 
605 1 0.0046186 0.0280292 0.0217893 0.00075 
606 1 0.00160241 0.0277391 0.021762 0.00075 
579 1 0.00777622 0.0278987 0.0204999 0.0005 
2076 1 0.0020779 0.0252645 0.0219454 0.0005 
2088 1 0.00241281 0.0223168 0.0218629 0.0005 
2129 1 0.0035184 0.0216718 0.0222571 0.0005 
589 1 0.00194749 0.0281886 0.0205 0.0005 
1819 1 0.0056271 0.0282854 0.0224818 0.0005 
448 1 0.00856445 0.0243426 0.0205 0.0005 
457 1 0.0149 0.0215501 0.0217899 0.0005 
459 1 0.0136147 0.021527 0.0205 0.0005 
460 1 0.0139784 0.0225382 0.0217597 0.0005 
462 1 0.00998605 0.0217976 0.0215206 0.0005 
464 1 0.00830281 0.0270357 0.0205 0.0005 
466 1 0.00897736 0.0228443 0.0209999 0.001 
467 1 0.0092953 0.0254303 0.02075 0.00075 
468 1 0.0103941 0.0236922 0.0215797 0.00075 
469 1 0.00922679 0.0266533 0.0204999 0.0005 
470 1 0.00954457 0.0241413 0.0205 0.0005 
471 1 0.0127825 0.0243369 0.0204999 0.0005 
473 1 0.0129618 0.0253207 0.0205 0.0005 
474 1 0.0140897 0.0241458 0.0205 0.0005 
475 1 0.0117819 0.0230997 0.0205 0.0005 
476 1 0.01265 0.0218588 0.0205 0.0005 
477 1 0.0112074 0.0250003 0.0210484 0.0005 
478 1 0.0110214 0.0237489 0.0205 0.0005 
479 1 0.0130695 0.021685 0.0216662 0.00075 
480 1 0.0113044 0.0262798 0.0205 0.0005 
481 1 0.0123611 0.0249284 0.0215241 0.00075 
482 1 0.0139168 0.0251088 0.0212781 0.00075 
483 1 0.0119471 0.0255136 0.0205 0.0005 
484 1 0.0117843 0.0243953 0.0204999 0.0005 
485 1 0.012207 0.023747 0.021133 0.0005 
486 1 0.0148772 0.0252947 0.0205 0.0005 
487 1 0.0106954 0.0224796 0.0207499 0.00075 
488 1 0.0152003 0.0233214 0.0205 0.0005 
489 1 0.0104477 0.0245712 0.0205 0.0005 
490 1 0.0133355 0.0228981 0.0207499 0.00075 
491 1 0.0141265 0.0260643 0.0205 0.0005 
492 1 0.010588 0.0255618 0.0204999 0.0005 
493 1 0.0103051 0.0272951 0.0205 0.0005 
494 1 0.0141639 0.0261284 0.0220011 0.0005 
495 1 0.0127786 0.0268911 0.0212499 0.00125 
496 1 0.0150814 0.0243143 0.0204999 0.0005 
497 1 0.0148623 0.0267694 0.0205 0.0005 
498 1 0.0148621 0.0260328 0.0211766 0.0005 
499 1 0.0145081 0.0269309 0.0215133 0.0005 
500 1 0.0160017 0.0263187 0.0207499 0.00075 
501 1 0.0146768 0.0222078 0.0207499 0.00075 
502 1 0.0144164 0.0234254 0.0211129 0.0005 
503 1 0.0155973 0.0249255 0.0211001 0.0005 
504 1 0.0122262 0.0224884 0.021155 0.0005 
505 1 0.0101222 0.0263755 0.0208475 0.0005 
506 1 0.0154739 0.0273667 0.0211804 0.0005 
507 1 0.010785 0.0274715 0.0213593 0.0005 
508 1 0.0131545 0.0239766 0.0213552 0.0005 
509 1 0.0114994 0.0231208 0.0214603 0.0005 
510 1 0.00888185 0.0264252 0.0214103 0.0005 
511 1 0.0154001 0.026591 0.0218111 0.0005 
512 1 0.00939282 0.0244393 0.0215056 0.0005 
513 1 0.00811547 0.0258171 0.0212036 0.0005 
514 1 0.0116635 0.0216858 0.0205 0.0005 
516 1 0.0153681 0.022926 0.0221881 0.001 
517 1 0.0112984 0.0274749 0.0205 0.0005 
518 1 0.00934173 0.0276466 0.0205 0.0005 
519 1 0.0144381 0.0279182 0.02075 0.00075 
520 1 0.0150523 0.0275628 0.0220657 0.0005 
523 1 0.0149221 0.0242176 0.0214824 0.0005 
1723 1 0.0115708 0.0215921 0.0217434 0.00075 
1708 1 0.00856526 0.0278454 0.0217744 0.001 
1749 1 0.0140867 0.0214892 0.0223691 0.0005 
1978 1 0.00826863 0.0264384 0.0222009 0.0005 
525 1 0.0158519 0.0225628 0.0205 0.0005 
1837 1 0.015173 0.0253689 0.022189 0.00075 
521 1 0.00993209 0.0280628 0.0211914 0.0005 
1895 1 0.0139892 0.0239991 0.0222852 0.00075 
651 1 0.0106473 0.0282347 0.0205 0.0005 
1704 1 0.00929142 0.0219128 0.0222871 0.0005 
2406 1 0.00998398 0.022613 0.0220995 0.0005 
515 1 0.0163653 0.0251491 0.0205 0.0005 
535 1 0.0161706 0.0275953 0.0205 0.0005 
527 1 0.0212585 0.0212845 0.0205 0.0005 
528 1 0.0198891 0.0214628 0.0214512 0.0005 
529 1 0.0188112 0.0217899 0.021653 0.0005 
530 1 0.0168989 0.0253349 0.0219018 0.001 
532 1 0.020168 0.0215996 0.0205 0.0005 
533 1 0.020812 0.0217865 0.0212433 0.0005 
534 1 0.0235 0.0217997 0.0214412 0.0005 
536 1 0.0234652 0.0214635 0.0205 0.0005 
538 1 0.0221412 0.0224373 0.0209998 0.001 
539 1 0.0199987 0.0247707 0.0205 0.0005 
540 1 0.0162827 0.0239268 0.02075 0.00075 
541 1 0.0195308 0.0258665 0.0204999 0.0005 
542 1 0.0180686 0.0222508 0.02075 0.00075 
543 1 0.0217091 0.0238035 0.0205 0.0005 
544 1 0.0235001 0.0261764 0.0204999 0.0005 
545 1 0.0183296 0.0256284 0.02075 0.00075 
546 1 0.0232488 0.0237692 0.02075 0.00075 
547 1 0.0235 0.022813 0.0215148 0.0005 
548 1 0.0235001 0.0276243 0.0205 0.0005 
549 1 0.0232437 0.0251917 0.0212258 0.00075 
550 1 0.0223468 0.0256728 0.0205 0.0005 
551 1 0.0179202 0.0237574 0.02075 0.00075 
552 1 0.0222297 0.024658 0.0205 0.0005 
553 1 0.0168527 0.022648 0.0205 0.0005 
554 1 0.0171201 0.0258199 0.0204999 0.0005 
555 1 0.0170447 0.0229819 0.0216894 0.00075 
556 1 0.0225124 0.0269003 0.0207499 0.00075 
557 1 0.0173158 0.0248241 0.0205 0.0005 
558 1 0.0197745 0.0231973 0.0212499 0.00125 
559 1 0.0209456 0.0244494 0.0205 0.0005 
560 1 0.0184919 0.0246129 0.0218418 0.00075 
561 1 0.0177483 0.0274904 0.0212499 0.00125 
562 1 0.0191741 0.0268009 0.0205 0.0005 
563 1 0.0209449 0.0258712 0.0209999 0.001 
564 1 0.019571 0.0263836 0.0213548 0.0005 
565 1 0.0211566 0.0225754 0.0221244 0.0005 
566 1 0.0189416 0.0245572 0.0205 0.0005 
567 1 0.0234039 0.0273975 0.0214786 0.0005 
568 1 0.0234897 0.0264007 0.0214744 0.0005 