ITEM: TIMESTEP
90000
ITEM: NUMBER OF ATOMS
929
ITEM: BOX BOUNDS mm mm mm
-2.4e-06 0.0240024
-7.8e-06 0.0780078
-3e-06 0.030003
ITEM: ATOMS id type x y z radius 
324 1 0.00394404 0.00464433 0.0219997 0.002 
100 1 0.00648972 0.000876694 0.0219795 0.0005 
291 1 0.00247443 0.00150383 0.0214999 0.0015 
561 1 0.00701379 0.00463077 0.0214698 0.00075 
368 1 0.000650467 0.00112555 0.0205095 0.0005 
784 1 0.0052334 0.00221103 0.0211568 0.00075 
32 1 0.00780805 0.00351742 0.0205 0.0005 
153 1 0.00744245 0.000741621 0.0214567 0.0005 
241 1 0.00496694 0.000590816 0.0205491 0.0005 
815 1 0.00140275 0.00359358 0.0206807 0.0005 
588 1 0.00367124 0.00692758 0.0205 0.0005 
448 1 0.0023403 0.00618719 0.0205 0.0005 
228 1 0.00729774 0.00546153 0.0205094 0.0005 
300 1 0.000534469 0.000503319 0.0216155 0.0005 
490 1 0.00710874 0.00587059 0.0216579 0.0005 
442 1 0.00103841 0.00646639 0.0213495 0.001 
710 1 0.0083369 0.000609268 0.0205256 0.0005 
199 1 0.0143665 0.00226315 0.0205008 0.0005 
395 1 0.0117266 0.00358981 0.0205 0.0005 
474 1 0.015221 0.000750022 0.02075 0.00075 
282 1 0.0126701 0.00408526 0.0205239 0.0005 
590 1 0.0114221 0.00263148 0.0205581 0.0005 
176 1 0.0142142 0.000500201 0.0214564 0.0005 
364 1 0.0132554 0.00159552 0.0219717 0.00075 
289 1 0.0146104 0.00333158 0.0205 0.0005 
362 1 0.00947594 0.0005772 0.0213282 0.0005 
370 1 0.00888137 0.00235924 0.0207515 0.00075 
783 1 0.0113982 0.00345892 0.0214607 0.0005 
51 1 0.0155623 0.00288276 0.0205 0.0005 
233 1 0.00982009 0.00356435 0.0207511 0.00075 
217 1 0.0115815 0.00537348 0.0205 0.0005 
501 1 0.00845355 0.00390394 0.0221257 0.0005 
636 1 0.0129519 0.00594282 0.0205 0.0005 
89 1 0.00943321 0.00483454 0.021626 0.0005 
171 1 0.0140988 0.00643103 0.0207554 0.00075 
155 1 0.0153707 0.00216371 0.0221748 0.00125 
870 1 0.00897638 0.00673108 0.0221972 0.0005 
549 1 0.0129822 0.00545629 0.0222098 0.0005 
126 1 0.0156526 0.00498147 0.0215022 0.0015 
307 1 0.0103045 0.00688782 0.0205 0.0005 
178 1 0.0173635 0.000844917 0.0207494 0.00075 
161 1 0.0232509 0.000749559 0.0207483 0.00075 
159 1 0.0225484 0.00375938 0.0205 0.0005 
204 1 0.0234989 0.00344934 0.0205001 0.0005 
219 1 0.0215829 0.00272251 0.0209987 0.001 
108 1 0.0176188 0.0027633 0.0212502 0.00125 
333 1 0.02282 0.00475467 0.0220738 0.00075 
142 1 0.02325 0.00224973 0.0207501 0.00075 
200 1 0.0215868 0.00448338 0.0208399 0.00075 
340 1 0.0232188 0.0053525 0.02075 0.00075 
452 1 0.0234859 0.00654947 0.0205006 0.0005 
518 1 0.0208781 0.00381004 0.0221737 0.00075 
185 1 0.0193445 0.00512984 0.0212499 0.00125 
61 1 0.0177319 0.00555098 0.0219141 0.0005 
66 1 0.0177245 0.00447746 0.0216009 0.0005 
31 1 0.0198329 0.00150694 0.0223047 0.0015 
123 1 0.0228862 0.0009996 0.0224393 0.001 
192 1 0.0176675 0.00651994 0.0207619 0.00075 
273 1 0.0229858 0.00301438 0.0223927 0.001 
274 1 0.00618223 0.0109632 0.0205 0.0005 
360 1 0.00447201 0.0127178 0.0205 0.0005 
64 1 0.00268007 0.00953732 0.0221347 0.001 
380 1 0.0064178 0.0120048 0.0205 0.0005 
527 1 0.00136067 0.00791187 0.0205003 0.0005 
75 1 0.000851718 0.00913305 0.02075 0.00075 
256 1 0.000500013 0.00834484 0.0216548 0.0005 
154 1 0.00555622 0.0123643 0.0215166 0.00075 
98 1 0.00155366 0.0116773 0.0214991 0.0015 
722 1 0.000556882 0.00897636 0.0224624 0.0005 
121 1 0.00767125 0.0116168 0.0205 0.0005 
427 1 0.00290401 0.0105256 0.0205613 0.0005 
13 1 0.000536425 0.0130849 0.0205 0.0005 
390 1 0.000541872 0.0100614 0.0221291 0.0005 
35 1 0.00784375 0.0135864 0.0215002 0.0015 
879 1 0.00460111 0.00910211 0.0215846 0.0005 
137 1 0.000502311 0.0141039 0.0205 0.0005 
275 1 0.0130395 0.0088934 0.0207779 0.00075 
581 1 0.0126246 0.00719814 0.0217009 0.00075 
46 1 0.0143186 0.00806284 0.0207679 0.00075 
80 1 0.0156146 0.0104728 0.0210199 0.001 
556 1 0.0100771 0.0121041 0.02075 0.00075 
342 1 0.011235 0.0126952 0.0214993 0.00075 
287 1 0.0106478 0.013623 0.0205 0.0005 
209 1 0.015191 0.00717049 0.0205024 0.0005 
714 1 0.0143717 0.0111835 0.0205195 0.0005 
865 1 0.0120055 0.0119318 0.0208064 0.0005 
756 1 0.00873772 0.0107781 0.0223983 0.0015 
318 1 0.0135394 0.00831193 0.0221161 0.00075 
891 1 0.0131016 0.00714617 0.0205002 0.0005 
686 1 0.0117667 0.011317 0.0222569 0.0005 
311 1 0.0161729 0.008129 0.021129 0.001 
190 1 0.0205748 0.00916899 0.0207599 0.00075 
319 1 0.0214938 0.0101831 0.0205 0.0005 
57 1 0.0220298 0.00756518 0.0214978 0.0015 
143 1 0.0232314 0.00886113 0.020548 0.0005 
6 1 0.0225179 0.0100425 0.021614 0.001 
113 1 0.0203234 0.00715985 0.0205056 0.0005 
293 1 0.0184349 0.011359 0.0217499 0.00175 
735 1 0.0204793 0.0125883 0.0218192 0.0005 
308 1 0.0216949 0.0117626 0.0210044 0.001 
49 1 0.019895 0.0101864 0.0205006 0.0005 
146 1 0.0202877 0.0116074 0.0204997 0.0005 
109 1 0.0208797 0.0104396 0.0216534 0.0005 
10 1 0.0171645 0.0131031 0.0205859 0.0005 
578 1 0.0229615 0.0133123 0.0210544 0.001 
139 1 0.017671 0.0140114 0.021833 0.001 
44 1 0.00472835 0.0146492 0.02075 0.00075 
439 1 0.00525491 0.0166237 0.0212499 0.00125 
174 1 0.00308446 0.018436 0.0209999 0.001 
737 1 0.00680104 0.020766 0.0208049 0.0005 
713 1 0.00623394 0.0199943 0.0205019 0.0005 
646 1 0.00551797 0.0206068 0.0208976 0.0005 
820 1 0.000734026 0.0202894 0.0205 0.0005 
323 1 0.00200307 0.015676 0.0220033 0.002 
872 1 0.0077885 0.0173533 0.0210563 0.00075 
611 1 0.00779624 0.020179 0.0205039 0.0005 
110 1 0.0126835 0.0190404 0.0205 0.0005 
62 1 0.0102595 0.0208094 0.0219995 0.002 
252 1 0.0120327 0.0158348 0.0205 0.0005 
43 1 0.0135041 0.0183892 0.0205 0.0005 
709 1 0.0103988 0.0157426 0.02075 0.00075 
260 1 0.0152428 0.0187291 0.0209999 0.001 
772 1 0.0124716 0.0169339 0.0212672 0.0005 
800 1 0.0151181 0.0169752 0.0211711 0.0005 
741 1 0.0144943 0.0157951 0.0220944 0.0005 
450 1 0.0130474 0.016023 0.0220178 0.0005 
59 1 0.0105918 0.0178004 0.022254 0.0005 
592 1 0.016641 0.0180693 0.0205034 0.0005 
591 1 0.0169289 0.018998 0.0220319 0.00075 
465 1 0.0172151 0.0190236 0.0205811 0.0005 
71 1 0.0197052 0.0145856 0.0205 0.0005 
189 1 0.0170916 0.0160207 0.0206494 0.0005 
78 1 0.0232376 0.0155697 0.0205004 0.0005 
231 1 0.0234988 0.0146009 0.0205003 0.0005 
330 1 0.0224531 0.0164538 0.0209264 0.00075 
41 1 0.0218433 0.015095 0.0207498 0.00075 
697 1 0.0171176 0.0166465 0.0214783 0.0005 
350 1 0.0188736 0.0179443 0.0214999 0.0015 
719 1 0.0179886 0.0203797 0.0211814 0.00075 
130 1 0.0213446 0.0172003 0.0208243 0.0005 
272 1 0.0234988 0.0181061 0.0205 0.0005 
279 1 0.0234686 0.0165061 0.0221023 0.0005 
648 1 0.0219291 0.0187721 0.0225634 0.00125 
874 1 0.0161108 0.0174152 0.0224435 0.001 
896 1 0.00365928 0.021933 0.0205698 0.0005 
678 1 0.00147281 0.0232051 0.0210066 0.001 
70 1 0.000892621 0.0214757 0.0205 0.0005 
482 1 0.0064764 0.0242496 0.0205 0.0005 
12 1 0.000750393 0.0247792 0.0207602 0.00075 
162 1 0.00061858 0.0260019 0.0205587 0.0005 
529 1 0.00512602 0.022957 0.0212499 0.00125 
508 1 0.00680248 0.0217637 0.0209037 0.0005 
700 1 0.000750734 0.0240061 0.0224166 0.00075 
1 1 0.00708132 0.0229878 0.0208166 0.00075 
180 1 0.00542719 0.028198 0.0222309 0.002 
600 1 0.00126138 0.0260679 0.0222499 0.00125 
118 1 0.0136644 0.0217461 0.0212499 0.00125 
152 1 0.0143212 0.0274776 0.0205 0.0005 
780 1 0.0135674 0.0264851 0.0205 0.0005 
695 1 0.00856076 0.0227131 0.0207959 0.00075 
345 1 0.0152491 0.0218145 0.0205086 0.0005 
221 1 0.0102037 0.0245854 0.021602 0.0015 
198 1 0.0150944 0.0240837 0.0212499 0.00125 
269 1 0.00796161 0.0262576 0.0212708 0.00125 
54 1 0.0100599 0.0272033 0.0209999 0.001 
42 1 0.0231235 0.0232794 0.0209882 0.00075 
512 1 0.0191926 0.0256049 0.02087 0.0005 
582 1 0.0167595 0.0229392 0.0207595 0.00075 
628 1 0.0234997 0.0218206 0.020705 0.0005 
400 1 0.0170348 0.0241828 0.0205 0.0005 
566 1 0.0199119 0.0219828 0.0210418 0.00075 
523 1 0.0163477 0.0229451 0.0220342 0.0005 
557 1 0.0212947 0.026855 0.0212618 0.00125 
238 1 0.0217466 0.0231971 0.0205722 0.0005 
717 1 0.0165945 0.0251841 0.0205494 0.0005 
862 1 0.0197623 0.027852 0.0222371 0.0005 
909 1 0.0230409 0.0273829 0.0218563 0.0005 
747 1 0.0166231 0.0220967 0.0224927 0.0005 
36 1 0.00175182 0.029038 0.0220815 0.00175 
249 1 0.00213247 0.0335356 0.0220124 0.002 
259 1 0.0005016 0.0301002 0.0205173 0.0005 
534 1 0.00491758 0.0312382 0.02075 0.00075 
522 1 0.00120948 0.0311329 0.02075 0.00075 
672 1 0.00457899 0.03274 0.0207607 0.00075 
624 1 0.0073431 0.0295503 0.0205912 0.0005 
348 1 0.00632781 0.0335895 0.0205 0.0005 
831 1 0.00748148 0.0326701 0.0211487 0.001 
505 1 0.00979485 0.0330006 0.020584 0.0005 
261 1 0.0137468 0.0307674 0.0205 0.0005 
844 1 0.00894119 0.0342891 0.022351 0.0005 
886 1 0.0127339 0.0337817 0.0205 0.0005 
904 1 0.00846415 0.0290955 0.0220193 0.0005 
138 1 0.0106951 0.0353054 0.0205595 0.0005 
919 1 0.0117999 0.0295691 0.0223323 0.00175 
353 1 0.0160886 0.0296703 0.0205 0.0005 
640 1 0.0181416 0.0341317 0.02075 0.00075 
698 1 0.0198294 0.0284124 0.02075 0.00075 
609 1 0.0173712 0.0328924 0.0205453 0.0005 
60 1 0.00535554 0.0355697 0.02175 0.00175 
91 1 0.00782594 0.0356248 0.0213259 0.00075 
451 1 0.00425521 0.0384617 0.0207509 0.00075 
433 1 0.00574659 0.0382797 0.0205 0.0005 
386 1 0.00312663 0.0389083 0.0213791 0.0005 
423 1 0.00394877 0.0402115 0.0211011 0.001 
535 1 0.001728 0.0355555 0.0205175 0.0005 
366 1 0.00053217 0.0372198 0.0205324 0.0005 
680 1 0.00258182 0.0371894 0.0207826 0.00075 
519 1 0.000528242 0.0388997 0.0206861 0.0005 
579 1 0.000750694 0.0402872 0.0207697 0.00075 
762 1 0.00304097 0.0397586 0.0222117 0.0005 
668 1 0.00537957 0.0403702 0.0205026 0.0005 
855 1 0.00484609 0.0415029 0.0205229 0.0005 
247 1 0.00742664 0.0374194 0.0208686 0.00075 
814 1 0.00637378 0.041162 0.0207751 0.00075 
347 1 0.00811211 0.0392188 0.02075 0.00075 
405 1 0.0114631 0.0405914 0.0205 0.0005 
328 1 0.0153333 0.038623 0.0205 0.0005 
309 1 0.0131125 0.0385903 0.0205 0.0005 
514 1 0.0143309 0.038358 0.0205059 0.0005 
641 1 0.0102591 0.037297 0.0210077 0.001 
626 1 0.0122576 0.0366152 0.0207728 0.00075 
615 1 0.00882772 0.0371019 0.0214195 0.0005 
242 1 0.0153261 0.0397844 0.0205287 0.0005 
268 1 0.0165672 0.0389026 0.0205 0.0005 
394 1 0.0177348 0.0392258 0.0205 0.0005 
326 1 0.0234997 0.0398103 0.0205 0.0005 
650 1 0.0224698 0.0412571 0.0214999 0.0015 
304 1 0.0233896 0.0380856 0.0205191 0.0005 
471 1 0.0173559 0.0382508 0.0222413 0.00125 
145 1 0.0022215 0.0429902 0.0224538 0.0015 
551 1 0.00252663 0.0467029 0.0224455 0.00075 
3 1 0.00353191 0.0442913 0.0205 0.0005 
402 1 0.00539567 0.0433304 0.0217627 0.00175 
122 1 0.00113122 0.0472657 0.0210704 0.001 
354 1 0.00344153 0.0452893 0.0205005 0.0005 
265 1 0.00356602 0.0469129 0.0207626 0.00075 
525 1 0.000517599 0.0485727 0.0205161 0.0005 
712 1 0.00599847 0.045554 0.0207562 0.00075 
608 1 0.00616767 0.0471193 0.0218461 0.0005 
567 1 0.000655198 0.0495888 0.0206113 0.0005 
495 1 0.00736838 0.0454604 0.0219098 0.00075 
424 1 0.00780254 0.0471359 0.0220431 0.00075 
453 1 0.0112993 0.0427164 0.0220106 0.002 
496 1 0.00903565 0.0483687 0.02075 0.00075 
40 1 0.00948204 0.0458836 0.0205 0.0005 
335 1 0.0109834 0.0454169 0.0205 0.0005 
367 1 0.0112121 0.0490904 0.0217499 0.00175 
533 1 0.00992102 0.047038 0.02075 0.00075 
403 1 0.0145059 0.0456353 0.0222647 0.00225 
371 1 0.0104494 0.046265 0.0218205 0.0005 
467 1 0.015013 0.0485859 0.021 0.001 
305 1 0.0168485 0.042742 0.0214999 0.0015 
739 1 0.019862 0.044444 0.02166 0.001 
776 1 0.0167061 0.0494696 0.0214403 0.0005 
410 1 0.0170337 0.0461309 0.0204999 0.0005 
485 1 0.0208647 0.0455535 0.0207501 0.00075 
168 1 0.0213427 0.0478348 0.0214999 0.0015 
499 1 0.0180456 0.047343 0.0212499 0.00125 
804 1 0.022927 0.045236 0.0208882 0.0005 
133 1 0.0167287 0.0483703 0.0205208 0.0005 
769 1 0.0195739 0.0453959 0.0205153 0.0005 
487 1 0.00285898 0.0497548 0.0222496 0.00225 
357 1 0.000513012 0.0510456 0.0205005 0.0005 
331 1 0.00118221 0.0520419 0.020987 0.0005 
378 1 0.00100076 0.0535322 0.0210029 0.001 
244 1 0.000793311 0.0555796 0.0205985 0.0005 
165 1 0.000573617 0.0566778 0.0206024 0.0005 
94 1 0.00291542 0.052935 0.0209999 0.001 
379 1 0.00523269 0.0564731 0.0205 0.0005 
421 1 0.00192054 0.054642 0.0205075 0.0005 
705 1 0.00762138 0.0499519 0.0214999 0.0015 
230 1 0.00576944 0.0505207 0.0205 0.0005 
446 1 0.00400509 0.055264 0.0220716 0.00175 
24 1 0.00691161 0.054315 0.0212499 0.00125 
361 1 0.0045544 0.0521374 0.0222679 0.0005 
771 1 0.00574164 0.0507239 0.022024 0.0005 
88 1 0.0095194 0.0504652 0.0205 0.0005 
8 1 0.0159016 0.0527675 0.0209442 0.0005 
653 1 0.0159116 0.0536723 0.0205034 0.0005 
711 1 0.0129423 0.054952 0.0205 0.0005 
750 1 0.0105436 0.0549821 0.022102 0.0015 
11 1 0.0130685 0.0556483 0.0216099 0.00075 
903 1 0.0110235 0.0523232 0.0217946 0.001 
702 1 0.0212542 0.0500165 0.0206365 0.0005 
415 1 0.0235 0.0508922 0.0205 0.0005 
431 1 0.0171481 0.0518892 0.0221748 0.001 
573 1 0.01925 0.0501817 0.0214999 0.0015 
73 1 0.0223 0.0516618 0.0210004 0.001 
112 1 0.0231987 0.0540285 0.02075 0.00075 
470 1 0.0205547 0.0515007 0.0205 0.0005 
445 1 0.023498 0.0552241 0.0205 0.0005 
48 1 0.0198569 0.0559799 0.0212499 0.00125 
186 1 0.023493 0.0567885 0.0205 0.0005 
222 1 0.0227232 0.0560214 0.020507 0.0005 
258 1 0.0196261 0.054349 0.0205 0.0005 
785 1 0.0182446 0.0520511 0.0207499 0.00075 
661 1 0.0210066 0.0532708 0.021665 0.001 
884 1 0.0164402 0.0552539 0.0222494 0.00075 
381 1 0.00106936 0.0570268 0.0219996 0.00075 
264 1 0.00165741 0.058041 0.0205 0.0005 
105 1 0.000588955 0.0577904 0.0205 0.0005 
7 1 0.00104187 0.0584099 0.0211995 0.0005 
694 1 0.00250867 0.058001 0.0217658 0.001 
226 1 0.000973372 0.060542 0.0207992 0.00075 
332 1 0.00053934 0.0616934 0.0205347 0.0005 
140 1 0.00593316 0.0639711 0.0205386 0.0005 
619 1 0.00410085 0.0590872 0.0209999 0.001 
667 1 0.00605613 0.0617815 0.0210694 0.001 
894 1 0.00704669 0.0578276 0.0221963 0.0005 
103 1 0.00810996 0.0637874 0.0215021 0.0015 
254 1 0.0082665 0.0592793 0.0216087 0.00075 
373 1 0.00894805 0.0603568 0.02075 0.00075 
692 1 0.0126244 0.0568099 0.021777 0.0005 
147 1 0.00936928 0.0568829 0.0205 0.0005 
344 1 0.0113183 0.0618235 0.0209967 0.00075 
81 1 0.011983 0.058063 0.0209024 0.00075 
414 1 0.0139136 0.0573722 0.0210256 0.001 
493 1 0.0114363 0.0591173 0.0205006 0.0005 
703 1 0.0095716 0.0615954 0.0205185 0.0005 
696 1 0.0105136 0.062802 0.0214383 0.0005 
26 1 0.0155331 0.0632416 0.02175 0.00175 
540 1 0.00881481 0.0612985 0.0225096 0.00125 
455 1 0.0164524 0.0598533 0.0217499 0.00175 
129 1 0.0171898 0.062373 0.0205001 0.0005 
67 1 0.0233798 0.0571914 0.0214657 0.0005 
306 1 0.0179525 0.0568155 0.02075 0.00075 
45 1 0.0215277 0.0580301 0.0212499 0.00125 
179 1 0.0234797 0.058528 0.0205 0.0005 
84 1 0.0226555 0.0607857 0.021253 0.00125 
157 1 0.0229909 0.0630336 0.0209999 0.001 
271 1 0.0209192 0.0616959 0.0205 0.0005 
313 1 0.0182797 0.0584157 0.02075 0.00075 
255 1 0.0193256 0.0630817 0.0205 0.0005 
469 1 0.0181801 0.0625099 0.0204999 0.0005 
38 1 0.019099 0.0617111 0.020781 0.00075 
477 1 0.0188516 0.059728 0.0210378 0.0005 
411 1 0.0204316 0.0629002 0.0222841 0.00075 
263 1 0.00243354 0.0657682 0.0217211 0.0015 
86 1 0.00556912 0.0665249 0.0211201 0.001 
76 1 0.000754848 0.0667455 0.0206431 0.0005 
299 1 0.00221868 0.0691388 0.0205056 0.0005 
243 1 0.00150626 0.0680639 0.021285 0.001 
629 1 0.00300575 0.0701494 0.021117 0.0005 
167 1 0.00101988 0.0700507 0.0209999 0.001 
187 1 0.00582502 0.0703898 0.0205 0.0005 
736 1 0.00741245 0.068519 0.0205 0.0005 
745 1 0.0045662 0.0677714 0.0205197 0.0005 
183 1 0.00150802 0.0702004 0.0224927 0.0005 
651 1 0.00539872 0.0685206 0.0220748 0.00075 
325 1 0.0104779 0.0695238 0.0205 0.0005 
102 1 0.0146724 0.0703267 0.0204978 0.0005 
779 1 0.011525 0.0691796 0.0221372 0.0005 
104 1 0.0234895 0.0643652 0.0205 0.0005 
355 1 0.019127 0.0642396 0.0205 0.0005 
18 1 0.0204407 0.0646791 0.0205 0.0005 
456 1 0.0180317 0.0647351 0.020578 0.0005 
478 1 0.0185643 0.0658613 0.0205 0.0005 
191 1 0.0201442 0.0684943 0.0221749 0.00175 
225 1 0.0234918 0.068345 0.0205 0.0005 
39 1 0.0222375 0.0701563 0.0210087 0.00075 
239 1 0.0181551 0.0710094 0.0205814 0.0005 
117 1 0.0225542 0.0687421 0.0214209 0.00075 
679 1 0.0203485 0.0705388 0.02075 0.00075 
645 1 0.023248 0.0675162 0.0219614 0.00075 
14 1 0.0234895 0.0707204 0.0205 0.0005 
351 1 0.00414222 0.0715225 0.0205 0.0005 
20 1 0.00484153 0.0745059 0.0205 0.0005 
210 1 0.00494127 0.0759354 0.0210001 0.001 
149 1 0.000508233 0.0764741 0.0204999 0.0005 
69 1 0.00190892 0.0756146 0.02075 0.00075 
443 1 0.00712772 0.0754531 0.0212499 0.00125 
101 1 0.00738095 0.077483 0.0205 0.0005 
565 1 0.0027293 0.0774976 0.0205676 0.0005 
560 1 0.000506609 0.0754539 0.0205797 0.0005 
22 1 0.00117275 0.077247 0.021264 0.00075 
184 1 0.00733457 0.0738845 0.0205 0.0005 
720 1 0.0053035 0.072086 0.0207531 0.00075 
744 1 0.000758884 0.0721378 0.02075 0.00075 
29 1 0.00782017 0.077249 0.0219377 0.00075 
644 1 0.00207796 0.0738224 0.0209999 0.001 
132 1 0.000628962 0.0752551 0.0216848 0.0005 
513 1 0.00621355 0.0772485 0.0217031 0.00075 
56 1 0.00264607 0.075009 0.0220127 0.0005 
197 1 0.00760033 0.0728716 0.0219986 0.00125 
215 1 0.00430226 0.0768893 0.0224141 0.0005 
53 1 0.00311172 0.0717097 0.0222656 0.0005 
422 1 0.0108958 0.0740323 0.020553 0.0005 
473 1 0.0137517 0.0711311 0.0207503 0.00075 
182 1 0.00880147 0.077247 0.02075 0.00075 
302 1 0.0148704 0.0729506 0.0215147 0.0015 
82 1 0.0103345 0.0764725 0.0224892 0.0015 
288 1 0.0111491 0.0757025 0.0205 0.0005 
87 1 0.0143333 0.0774589 0.0205 0.0005 
125 1 0.0102917 0.0774576 0.0205 0.0005 
79 1 0.013681 0.0754585 0.021001 0.001 
195 1 0.0133318 0.0774996 0.0205 0.0005 
435 1 0.0128519 0.0766103 0.0205 0.0005 
498 1 0.0155572 0.0759873 0.0207524 0.00075 
173 1 0.0112923 0.0774799 0.0205131 0.0005 
277 1 0.0116939 0.0765635 0.0205 0.0005 
206 1 0.0123764 0.0749051 0.0205012 0.0005 
563 1 0.0123114 0.0774523 0.0205 0.0005 
605 1 0.0121731 0.0727896 0.0205 0.0005 
664 1 0.0145539 0.0774544 0.0215877 0.0005 
407 1 0.0149766 0.0751167 0.0221507 0.00075 
398 1 0.01769 0.0744248 0.0204999 0.0005 
235 1 0.0170721 0.072194 0.0205043 0.0005 
408 1 0.0182871 0.07288 0.0208322 0.00075 
404 1 0.0215426 0.0714702 0.0207526 0.00075 
376 1 0.0189974 0.0718533 0.0205919 0.0005 
257 1 0.0200091 0.0717157 0.0205 0.0005 
134 1 0.0229481 0.0716257 0.0205 0.0005 
418 1 0.0230745 0.0714601 0.0214935 0.0005 
358 1 0.0188862 0.0742539 0.020819 0.00075 
52 1 0.0234733 0.072525 0.0205121 0.0005 
141 1 0.016502 0.0767721 0.0205005 0.0005 
163 1 0.0171141 0.07338 0.0205 0.0005 
9 1 0.0218365 0.0737514 0.0217493 0.00175 
329 1 0.0217258 0.0765056 0.0210086 0.001 
93 1 0.0232664 0.0772079 0.0205 0.0005 
481 1 0.0203145 0.0772721 0.0205 0.0005 
234 1 0.0199141 0.0756564 0.0210012 0.001 
655 1 0.0198888 0.0735802 0.0204998 0.0005 
85 1 0.0234778 0.0774914 0.021443 0.0005 
253 1 0.019262 0.0774622 0.0205767 0.0005 
312 1 0.0199494 0.0772422 0.0217632 0.00075 
606 1 0.0195672 0.0740697 0.0218658 0.0005 
458 1 0.0181733 0.0774976 0.0208422 0.0005 
656 1 0.0210577 0.0708847 0.0221988 0.00075 
746 1 0.0203071 0.0726711 0.0205002 0.0005 
763 1 0.00795933 0.00596342 0.0229157 0.0005 
684 1 0.00652688 0.00356336 0.0236802 0.00125 
596 1 0.00285127 0.000825023 0.0286265 0.00075 
388 1 0.004064 0.00176425 0.0247413 0.00175 
466 1 0.00365597 0.00442948 0.0255235 0.001 
151 1 0.000755687 0.000780148 0.0278291 0.00075 
28 1 0.000898486 0.000766302 0.0229969 0.00075 
599 1 0.00663593 0.00489586 0.0251336 0.0005 
320 1 0.00148458 0.00100154 0.0258859 0.001 
509 1 0.00391387 0.00391889 0.0290308 0.0005 
156 1 0.000504393 0.00207943 0.0280512 0.0005 
816 1 0.00425053 0.002031 0.0225035 0.0005 
392 1 0.00629828 0.00614181 0.0232402 0.001 
858 1 0.00702693 0.00517948 0.0241962 0.0005 
598 1 0.0143117 0.000509328 0.0232408 0.0005 
730 1 0.00888565 0.00111685 0.0244148 0.0005 
148 1 0.0121798 0.00254711 0.0248232 0.0005 
25 1 0.0138438 0.00435668 0.0234864 0.00125 
220 1 0.00898834 0.000760242 0.0283163 0.00075 
170 1 0.0115824 0.00154997 0.0259535 0.001 
34 1 0.0106024 0.000535361 0.0277967 0.0005 
507 1 0.0157011 0.00125265 0.0256495 0.00125 
524 1 0.013081 0.000751512 0.0264122 0.00075 
16 1 0.014155 0.00211307 0.0280232 0.001 
15 1 0.012422 0.001414 0.0289059 0.001 
676 1 0.0103827 0.00114195 0.0224711 0.00075 
515 1 0.00866732 0.00296393 0.0278724 0.0015 
572 1 0.0143405 0.00059768 0.0265374 0.0005 
663 1 0.0150368 0.00602164 0.0244182 0.00075 
845 1 0.0150999 0.00246674 0.0241514 0.00075 
97 1 0.014282 0.00678821 0.0225529 0.001 
864 1 0.00859649 0.00385637 0.0256134 0.0005 
868 1 0.0108069 0.00618356 0.0238286 0.0005 
895 1 0.012402 0.000978257 0.0247149 0.0005 
774 1 0.00857432 0.00679023 0.0236625 0.00075 
213 1 0.0162702 0.00654429 0.0270935 0.002 
577 1 0.0232427 0.00592241 0.0229268 0.00075 
544 1 0.0210435 0.00544798 0.0227658 0.001 
613 1 0.0163857 0.00132021 0.0281535 0.00125 
459 1 0.017721 0.0012669 0.0240501 0.00125 
164 1 0.0181831 0.0071414 0.0292988 0.0005 
160 1 0.0218346 0.00175364 0.0248637 0.00175 
17 1 0.0193521 0.000750553 0.0250895 0.00075 
92 1 0.0229993 0.00100181 0.0289972 0.001 
202 1 0.0232488 0.00125148 0.0269683 0.00075 
136 1 0.0232368 0.00359826 0.0258264 0.00075 
322 1 0.0179743 0.00105454 0.0291637 0.0005 
2 1 0.019406 0.00175337 0.0273817 0.00175 
281 1 0.0216353 0.00386382 0.023509 0.00075 
5 1 0.0179387 0.0040364 0.0287199 0.00125 
604 1 0.0176476 0.00426493 0.023972 0.00175 
290 1 0.0202655 0.0036756 0.0244485 0.00075 
106 1 0.0222262 0.00662298 0.0234186 0.0005 
211 1 0.0223278 0.00311558 0.0278302 0.0015 
724 1 0.0191805 0.00234618 0.024924 0.00075 
47 1 0.0210385 0.00258367 0.029488 0.0005 
115 1 0.0196684 0.00454993 0.0261836 0.00125 
365 1 0.0199609 0.00559041 0.0241715 0.00075 
372 1 0.0221455 0.00543414 0.0250654 0.0015 
334 1 0.0232478 0.00481601 0.0292128 0.00075 
77 1 0.0195544 0.00517476 0.02907 0.00075 
693 1 0.0198218 0.00644702 0.0253243 0.0005 
652 1 0.0209716 0.00671877 0.0235651 0.0005 
631 1 0.0214808 0.00597314 0.0281803 0.0015 
798 1 0.00684191 0.00708637 0.0256063 0.00125 
486 1 0.00225035 0.0075114 0.0246401 0.00225 
447 1 0.00735993 0.00737991 0.0234415 0.0005 
208 1 0.00201144 0.0103569 0.0277877 0.002 
237 1 0.00498185 0.0102845 0.0263472 0.0005 
488 1 0.00398977 0.0134332 0.0251077 0.00175 
625 1 0.00354794 0.0135162 0.0286574 0.001 
175 1 0.000528967 0.00776992 0.0273182 0.0005 
463 1 0.00598082 0.0120226 0.0244029 0.0005 
842 1 0.00568208 0.00861757 0.0250375 0.0005 
503 1 0.00070552 0.0115605 0.0255281 0.0005 
887 1 0.00698155 0.00924844 0.0247843 0.0005 
569 1 0.00967907 0.013776 0.0227847 0.0005 
571 1 0.015042 0.00892735 0.0227942 0.001 
677 1 0.0147598 0.013779 0.0241904 0.0015 
764 1 0.0103113 0.00778327 0.0232139 0.00125 
369 1 0.010107 0.00738763 0.0256493 0.00075 
810 1 0.0094777 0.0122519 0.0255638 0.00075 
893 1 0.0140714 0.00834387 0.0253221 0.001 
30 1 0.0171309 0.0112265 0.0272181 0.001 
723 1 0.0176802 0.00905003 0.0287523 0.00125 
691 1 0.0169826 0.0136614 0.0248301 0.00075 
542 1 0.0162102 0.0103368 0.0227853 0.00075 
33 1 0.0184378 0.00782824 0.0231075 0.002 
419 1 0.0229885 0.0077076 0.0242208 0.001 
432 1 0.023479 0.0113373 0.0236167 0.0005 
538 1 0.0234801 0.0135989 0.0250448 0.0005 
172 1 0.0229942 0.00965447 0.0235275 0.001 
659 1 0.0210094 0.00969258 0.0226827 0.00075 
725 1 0.0174596 0.0130657 0.0232945 0.00075 
90 1 0.0211527 0.0112114 0.0226008 0.00075 
585 1 0.0201384 0.00879177 0.0265981 0.002 
794 1 0.0171752 0.012249 0.0251192 0.0005 
826 1 0.0170145 0.0104226 0.0246234 0.0005 
853 1 0.0202132 0.0117907 0.0234103 0.0005 
910 1 0.0216498 0.0134531 0.0247707 0.00075 
850 1 0.000757922 0.0180314 0.0242204 0.00075 
401 1 0.00540369 0.014243 0.0225886 0.00125 
436 1 0.00624795 0.0170089 0.0260603 0.0005 
399 1 0.0050561 0.016162 0.0266309 0.0005 
296 1 0.00324002 0.0199821 0.0239945 0.00225 
587 1 0.000597242 0.0157652 0.0253022 0.0005 
19 1 0.00644427 0.0207914 0.0225371 0.00125 
548 1 0.00079995 0.0176926 0.0271966 0.0005 
888 1 0.00460123 0.0160198 0.0251164 0.0005 
406 1 0.00108117 0.0194413 0.0278937 0.001 
911 1 0.00657622 0.0211157 0.0253115 0.0005 
583 1 0.000517911 0.0198023 0.029442 0.0005 
286 1 0.00296351 0.0202984 0.0279956 0.001 
494 1 0.00741393 0.0201928 0.0292521 0.00075 
188 1 0.012057 0.0143914 0.022867 0.0015 
701 1 0.0103489 0.0203691 0.0279029 0.0005 
673 1 0.0104914 0.0181735 0.0238222 0.00075 
657 1 0.013649 0.0207807 0.023193 0.0005 
715 1 0.0119583 0.0194653 0.0244311 0.00125 
734 1 0.0135632 0.0167847 0.0234208 0.00075 
786 1 0.0087667 0.019119 0.0234917 0.0005 
789 1 0.0119648 0.0163612 0.0248432 0.0005 
833 1 0.00863392 0.0205778 0.0257095 0.00125 
212 1 0.014614 0.0196574 0.0259448 0.00175 
890 1 0.00981905 0.0153516 0.0252528 0.00125 
120 1 0.0208549 0.0165772 0.0254764 0.001 
758 1 0.0160887 0.0172821 0.0239434 0.0005 
801 1 0.0228529 0.0172103 0.0252822 0.001 
812 1 0.0178357 0.0146085 0.024278 0.0005 
837 1 0.0188411 0.0201961 0.0243385 0.0005 
839 1 0.0203347 0.0180666 0.0251284 0.0005 
898 1 0.0198677 0.0148135 0.0256187 0.0005 
908 1 0.0204219 0.0198538 0.0259015 0.0005 
917 1 0.0182436 0.023411 0.0261969 0.00075 
576 1 0.000849977 0.0224817 0.0256177 0.00075 
550 1 0.00145426 0.0222766 0.0237409 0.0005 
688 1 0.000670923 0.0238252 0.023719 0.0005 
223 1 0.00310292 0.0239079 0.0232518 0.00175 
245 1 0.00180575 0.0270276 0.0248896 0.0015 
742 1 0.00526922 0.0255282 0.0258929 0.0005 
782 1 0.00458839 0.0248832 0.0253602 0.0005 
824 1 0.0047515 0.0246361 0.0291813 0.00075 
731 1 0.00407311 0.0223872 0.0286882 0.00125 
472 1 0.000596789 0.0207643 0.0287015 0.0005 
476 1 0.00708402 0.0239758 0.0240009 0.00225 
633 1 0.00127297 0.0226922 0.0285051 0.00125 
881 1 0.000512116 0.0218754 0.0237216 0.0005 
748 1 0.00654987 0.0277689 0.0294148 0.0005 
647 1 0.00592642 0.0273625 0.0270198 0.00175 
823 1 0.00733311 0.0233564 0.0269828 0.00075 
832 1 0.00329271 0.0279856 0.0276339 0.001 
836 1 0.0105789 0.0217723 0.028625 0.00075 
685 1 0.014165 0.0256084 0.0280485 0.001 
662 1 0.0155944 0.0243081 0.0244421 0.0015 
718 1 0.0117527 0.0224711 0.0249802 0.001 
627 1 0.0124893 0.0225963 0.0290973 0.00075 
838 1 0.0137236 0.0225868 0.0243409 0.001 
617 1 0.00909494 0.0248108 0.0270303 0.00075 
343 1 0.010863 0.0244091 0.0280444 0.00125 
915 1 0.0128908 0.0242893 0.024375 0.00075 
726 1 0.0165359 0.0238114 0.0226277 0.0005 
536 1 0.0225644 0.0215392 0.0241691 0.0005 
492 1 0.0180432 0.0246275 0.0242096 0.0005 
500 1 0.0186573 0.0243897 0.0272588 0.00075 
623 1 0.0212331 0.0251348 0.0249859 0.00125 
639 1 0.021619 0.0224459 0.0240433 0.0005 
759 1 0.0181104 0.0232942 0.0241467 0.00075 
770 1 0.0188683 0.0218027 0.0251236 0.0005 
813 1 0.0187592 0.0225092 0.023367 0.0005 
841 1 0.0195568 0.023139 0.0267799 0.0005 
787 1 0.0163024 0.0260143 0.02364 0.0005 
594 1 0.0222479 0.0241476 0.0282293 0.00175 
144 1 0.0168896 0.0278582 0.022665 0.001 
425 1 0.0169473 0.0267095 0.0266002 0.002 
916 1 0.0195152 0.0279699 0.0247958 0.0005 
337 1 0.00390848 0.031332 0.0242778 0.00075 
315 1 0.000772414 0.030145 0.0285289 0.00075 
338 1 0.00175809 0.0305156 0.0254909 0.00175 
483 1 0.00050123 0.0291193 0.0242378 0.0005 
430 1 0.00109629 0.0312878 0.0277742 0.0005 
479 1 0.000499695 0.0320248 0.0287814 0.0005 
412 1 0.00112482 0.0341809 0.024813 0.001 
638 1 0.0030309 0.0327859 0.0245076 0.00075 
521 1 0.00274075 0.031889 0.0275692 0.0005 
554 1 0.00361203 0.0346147 0.0244148 0.0005 
409 1 0.00141634 0.0335702 0.0286995 0.00125 
749 1 0.00287553 0.0337114 0.0262886 0.001 
597 1 0.00738775 0.0346439 0.0240856 0.001 
877 1 0.00427875 0.029 0.0245344 0.0005 
457 1 0.00486881 0.0346586 0.027952 0.001 
897 1 0.000700771 0.0318962 0.0240555 0.0005 
196 1 0.00190245 0.0346899 0.0272817 0.0005 
285 1 0.00762267 0.0309573 0.0258088 0.002 
752 1 0.0104564 0.029216 0.0292059 0.0005 
504 1 0.00873641 0.0326839 0.0284386 0.00125 
861 1 0.0139162 0.0311196 0.022822 0.00075 
875 1 0.01526 0.0346983 0.0234876 0.001 
374 1 0.0224685 0.0329195 0.0226513 0.00075 
889 1 0.0174379 0.0305574 0.0295162 0.0005 
675 1 0.0193185 0.0298641 0.028446 0.00125 
553 1 0.0193438 0.0337049 0.0277596 0.00175 
416 1 0.0211092 0.0314503 0.0290453 0.00075 
384 1 0.0234878 0.0300443 0.0256763 0.0005 
876 1 0.0224027 0.0340683 0.02498 0.00125 
900 1 0.022891 0.0291358 0.0268061 0.001 
902 1 0.0214088 0.0321554 0.0239212 0.0005 
236 1 0.0028465 0.0376694 0.02359 0.002 
740 1 0.00056771 0.0417438 0.0236775 0.0005 
543 1 0.0012884 0.0404173 0.0227088 0.00125 
99 1 0.000957652 0.0354923 0.028364 0.00075 
316 1 0.000528728 0.0406891 0.0272364 0.0005 
375 1 0.00168022 0.038884 0.0288867 0.001 
462 1 0.00128023 0.0394256 0.0258507 0.00125 
506 1 0.000738681 0.036137 0.029465 0.0005 
545 1 0.00534942 0.0408398 0.0232125 0.001 
669 1 0.00760336 0.0366039 0.0229504 0.001 
765 1 0.00639392 0.0383668 0.0231877 0.00075 
607 1 0.00054726 0.0420218 0.0293643 0.0005 
809 1 0.00426423 0.0406121 0.0278126 0.0015 
570 1 0.00859253 0.0422048 0.0227277 0.0005 
733 1 0.00899996 0.041738 0.0241484 0.0005 
584 1 0.014929 0.0386106 0.0225074 0.00075 
802 1 0.0119057 0.0373772 0.0246399 0.00075 
835 1 0.0118314 0.0361928 0.0234966 0.0005 
775 1 0.0108826 0.0406431 0.0247699 0.00125 
883 1 0.0139735 0.0419108 0.0242408 0.0005 
901 1 0.0107162 0.03793 0.0256253 0.00075 
912 1 0.00857284 0.0382268 0.0254184 0.001 
602 1 0.0172901 0.0424892 0.0268339 0.00075 
847 1 0.0200281 0.0415681 0.0250269 0.00075 
848 1 0.0226984 0.0376633 0.0227084 0.00075 
856 1 0.0173992 0.0384216 0.0251056 0.0005 
878 1 0.0214946 0.0355757 0.0238324 0.00075 
892 1 0.0197853 0.0369028 0.0236168 0.00075 
382 1 0.00161338 0.0439625 0.0249676 0.00075 
603 1 0.00411907 0.0430696 0.0243569 0.00075 
55 1 0.00100026 0.0469674 0.0288863 0.001 
620 1 0.000831428 0.0433626 0.0262782 0.0005 
822 1 0.00326116 0.0445686 0.0289558 0.001 
278 1 0.00681166 0.0477768 0.0240456 0.0005 
704 1 0.00577056 0.0467719 0.023408 0.0005 
537 1 0.00270924 0.043936 0.0267014 0.00125 
547 1 0.000987013 0.0495718 0.0291319 0.00075 
397 1 0.00476071 0.0477761 0.0281536 0.00175 
37 1 0.00200361 0.0497384 0.0264124 0.002 
428 1 0.00230403 0.0481526 0.0286674 0.00075 
682 1 0.00724363 0.0466757 0.02339 0.0005 