# vtk DataFile Version 4.0
Generated by LIGGGHTS
ASCII
DATASET POLYDATA
POINTS 258 float
0.00557769 0.000560352 0.021905 0.0152366 0.0046978 0.0211184 0.0124041 0.00391619 0.0216828 
0.0103628 0.000989221 0.0208179 0.00823517 0.0018667 0.021302 0.0117511 0.000913039 0.0221407 
0.016566 0.00296283 0.0223753 0.0224536 0.00691144 0.0213277 0.019332 0.00188485 0.0208001 
0.0211956 0.00614144 0.0219283 0.00589057 0.00939856 0.0208897 0.0125767 0.00678562 0.021709 
0.0155223 0.00827035 0.0212649 0.00827958 0.00948323 0.0223493 0.0178584 0.0083454 0.0212405 
0.021944 0.0139422 0.0210951 0.0220681 0.00989081 0.0212867 0.00716734 0.0180671 0.0222796 
0.00256071 0.0192248 0.0224304 0.00815702 0.0165375 0.0207539 0.0126763 0.0152831 0.0214072 
0.0150582 0.0153763 0.0221582 0.0179528 0.0145878 0.0216285 0.0196115 0.0187094 0.0223338 
0.0196892 0.014694 0.0210031 0.00213807 0.021503 0.0214903 0.0021724 0.0245705 0.0213651 
0.00370174 0.0230763 0.0216319 0.00780001 0.0219443 0.0222362 0.0107118 0.027461 0.0205022 
0.0158608 0.0219121 0.0205416 0.0213531 0.0217583 0.0211219 0.00226392 0.0313546 0.0222776 
0.0127552 0.0286822 0.0213694 0.0102378 0.0322225 0.0207863 0.0185771 0.0322748 0.0219067 
0.0171463 0.0316619 0.0218793 0.0186072 0.0349946 0.0224158 0.00673508 0.0407756 0.0205 
0.0106405 0.0362982 0.0218448 0.0142744 0.0416396 0.022404 0.0183003 0.0406464 0.0215599 
0.00239125 0.0443921 0.0219998 0.00680236 0.049529 0.0213538 0.0109563 0.0477789 0.0205015 
0.00954193 0.0460973 0.0205494 0.0228242 0.0471896 0.02075 0.0216946 0.043612 0.0214999 
0.00321126 0.0502538 0.0214441 0.010885 0.0547262 0.0208338 0.00911569 0.0498914 0.02175 
0.0143536 0.0549088 0.0224116 0.0187446 0.0543326 0.0212506 0.0223059 0.0510661 0.0223372 
0.0219347 0.054415 0.0215682 0.00060575 0.0581288 0.0204993 0.00730737 0.0618564 0.0219242 
0.0017485 0.0587002 0.021406 0.011018 0.0619206 0.0214695 0.019186 0.0626811 0.02075 
0.0198148 0.0576908 0.021479 0.00620292 0.0667462 0.020556 0.0127411 0.0673581 0.0214619 
0.022202 0.0659303 0.0212236 0.0217793 0.0693696 0.0220621 0.0200514 0.0651685 0.0208962 
0.00570895 0.0727845 0.020863 0.000773865 0.0726179 0.0216983 0.00718121 0.0733742 0.021508 
0.00550481 0.0760475 0.0216417 0.00148502 0.0749571 0.0207778 0.00962452 0.0757185 0.02224 
0.0154809 0.0727384 0.0206076 0.0144857 0.0754519 0.0212322 0.0114951 0.0738249 0.0221647 
0.00645834 0.00262773 0.0247923 0.0057006 0.00665971 0.0253973 0.00603842 0.00180003 0.0280565 
0.00345725 0.00664023 0.0247189 0.00174662 0.0053465 0.028076 0.00882659 0.00207604 0.0241569 
0.00951604 0.000532637 0.0245561 0.0159005 0.000505512 0.0255471 0.0231905 0.00136864 0.0289014 
0.0192392 0.00260883 0.0247403 0.0168888 0.00608645 0.0226632 0.00421289 0.00909836 0.0249652 
0.00538796 0.0112943 0.0234897 0.00693735 0.00928751 0.0234899 0.00470453 0.0107227 0.0253379 
0.0039638 0.0121973 0.0271186 0.00948423 0.00748046 0.0262637 0.00856426 0.0101682 0.0232388 
0.0155748 0.0106207 0.0270276 0.0126235 0.0103274 0.0273058 0.0139258 0.00851066 0.024928 
0.0100643 0.00711759 0.0234949 0.00981898 0.0118714 0.0258889 0.0197577 0.0108328 0.0243596 
0.0225165 0.0111093 0.0242896 0.0218653 0.00796601 0.0225651 0.0173129 0.00746723 0.0257448 
0.0211486 0.0128995 0.0230019 0.0192536 0.00943698 0.0225402 0.00105119 0.0152806 0.0286608 
0.00102432 0.0170717 0.0291264 0.00345282 0.0146703 0.0273083 0.00674185 0.0203028 0.0240267 
0.00101562 0.0177039 0.024069 0.00520097 0.0153234 0.0245055 0.00553092 0.0202699 0.0236558 
0.00765136 0.0143023 0.0246637 0.0107001 0.0157795 0.0285188 0.0128693 0.0196996 0.0242949 
0.0148374 0.0184516 0.0240843 0.00967909 0.0147152 0.0244463 0.00818126 0.0210878 0.0252757 
0.0102918 0.0206499 0.0230902 0.0213929 0.0207355 0.0255234 0.0168133 0.0178719 0.0255928 
0.0180113 0.0151001 0.0240652 0.000505748 0.0259755 0.0252939 0.00263084 0.0274981 0.0277603 
0.00535531 0.0217654 0.0247498 0.00410832 0.0246348 0.0259126 0.00441938 0.0272101 0.028001 
0.00355324 0.0239355 0.0227811 0.00761416 0.0250491 0.0254495 0.015344 0.0235471 0.024162 
0.012182 0.0274265 0.0259857 0.0104047 0.0243118 0.0232916 0.0118327 0.0272818 0.0231485 
0.0122725 0.024818 0.0238881 0.0218102 0.0266303 0.0281393 0.0192145 0.0232657 0.0265523 
0.0196408 0.0247071 0.024329 0.00467146 0.0297323 0.0227773 0.0036515 0.0291642 0.0291432 
0.0019916 0.0342958 0.0278812 0.00460152 0.0317739 0.0227153 0.00991396 0.0326873 0.0270429 
0.0126525 0.0345171 0.0259478 0.0122541 0.0340019 0.0227435 0.0125896 0.0298589 0.0245451 
0.0145258 0.0299159 0.0227572 0.0100272 0.0321774 0.0237051 0.0125358 0.0349063 0.0284221 
0.00807774 0.0297036 0.028069 0.0214517 0.0334381 0.0293308 0.016372 0.0297572 0.0241671 
0.0195767 0.031928 0.0238177 0.0218529 0.0326306 0.025571 0.0198795 0.0346758 0.0244212 
0.00553474 0.0427391 0.0245009 0.00118311 0.0406987 0.0229815 0.000807223 0.0391103 0.0286166 
0.00599865 0.0398952 0.0245866 0.00764974 0.0364141 0.0279678 0.00840867 0.0395007 0.0242812 
0.0108662 0.0395131 0.0240421 0.0120757 0.0419702 0.0227732 0.00827588 0.0414709 0.0252485 
0.0127554 0.0388256 0.0252839 0.013695 0.0408461 0.0241436 0.00961318 0.0400277 0.0252378 
0.0141714 0.0366095 0.0267356 0.0192996 0.0394647 0.0230813 0.0181083 0.0396163 0.0274383 
0.0216446 0.0397892 0.0230122 0.0218573 0.0393643 0.025803 0.0228489 0.0367647 0.0283871 
0.00755769 0.0495574 0.0278259 0.00663031 0.0426329 0.026976 0.00872128 0.0475165 0.0227111 
0.0114189 0.0446889 0.0292593 0.00812845 0.0434984 0.0251408 0.00848162 0.0471455 0.0238141 
0.0128254 0.0496113 0.0260792 0.0124342 0.0486369 0.0237105 0.0109324 0.046115 0.0279707 
0.0141026 0.0447688 0.0283739 0.0193956 0.0467196 0.024925 0.0176621 0.0481583 0.0251224 
0.0234411 0.0489551 0.0233042 0.022233 0.0464404 0.024334 0.00665882 0.0549347 0.0273171 
0.00190876 0.0534666 0.0236848 0.00353231 0.0502703 0.0255924 0.00652968 0.0530997 0.023549 
0.00125337 0.0565955 0.0252149 0.00448198 0.0538414 0.02261 0.0118165 0.0507452 0.0293766 
0.0101154 0.0565883 0.0279103 0.0101568 0.0545473 0.02279 0.0147844 0.0500341 0.023953 
0.011565 0.0502515 0.0245316 0.00839747 0.0528972 0.0259227 0.00897861 0.0504189 0.025921 
0.0208265 0.0503493 0.0258855 0.00396734 0.0572305 0.0275388 0.00444518 0.0591315 0.0272619 
0.00798946 0.0601131 0.0262601 0.00116495 0.0626606 0.0243007 0.00325688 0.0596021 0.0241274 
0.00405508 0.0575795 0.0252588 0.0140878 0.062923 0.0291702 0.00893551 0.063199 0.0247609 
0.00884157 0.058838 0.0245959 0.0111307 0.0577558 0.0253267 0.0142623 0.0581019 0.0228245 
0.0161026 0.0603595 0.0254118 0.0230915 0.0613024 0.0265588 0.0225131 0.0579683 0.0235227 
0.0229643 0.0573918 0.0225191 0.0201613 0.0604845 0.024998 0.0189903 0.0608083 0.0237394 
0.00250302 0.0657788 0.0235269 0.00538282 0.0650809 0.0292458 0.00053673 0.0676873 0.0250739 
0.00731103 0.0668055 0.0250488 0.00743381 0.0654066 0.0226153 0.0018348 0.0695898 0.0249024 
0.00173761 0.0683457 0.029049 0.00352833 0.0672139 0.0251879 0.0129444 0.064022 0.0236142 
0.0113059 0.0693503 0.027359 0.0159659 0.0640293 0.0234413 0.0146509 0.0689022 0.0234451 
0.0118605 0.0647735 0.0257495 0.00892322 0.0670548 0.0235821 0.0123662 0.0645132 0.0293299 
0.0121403 0.0663371 0.0233194 0.0153061 0.0682328 0.0289603 0.0198785 0.0688971 0.0279047 
0.0167371 0.0659127 0.0291691 0.0233206 0.0691659 0.0291749 0.0220007 0.0706197 0.0240193 
0.0194574 0.0659653 0.0246375 0.021782 0.0694438 0.0242011 0.0179483 0.0701608 0.0238168 
0.00394717 0.0719339 0.0271423 0.00416394 0.075947 0.0232803 0.00659006 0.0750761 0.0256409 
0.0076196 0.0735398 0.0255394 0.00859638 0.0760552 0.0251642 0.00999439 0.0770935 0.0234993 
0.00853066 0.0740534 0.0233642 0.0158062 0.0734498 0.023194 0.0101642 0.0731346 0.0237741 
0.013143 0.0726524 0.0243122 0.0234316 0.0769026 0.0294532 0.0234415 0.0712874 0.0233564 
0.0198291 0.0729869 0.0237288 0.0175127 0.0758222 0.0244979 0.0208567 0.0589467 0.0229668 
0.00152382 0.00928075 0.0245786 0.0184021 0.0632346 0.0225451 0.0190287 0.0523354 0.0256307 

VERTICES 258 516
1 0 
1 1 
1 2 
1 3 
1 4 
1 5 
1 6 
1 7 
1 8 
1 9 
1 10 
1 11 
1 12 
1 13 
1 14 
1 15 
1 16 
1 17 
1 18 
1 19 
1 20 
1 21 
1 22 
1 23 
1 24 
1 25 
1 26 
1 27 
1 28 
1 29 
1 30 
1 31 
1 32 
1 33 
1 34 
1 35 
1 36 
1 37 
1 38 
1 39 
1 40 
1 41 
1 42 
1 43 
1 44 
1 45 
1 46 
1 47 
1 48 
1 49 
1 50 
1 51 
1 52 
1 53 
1 54 
1 55 
1 56 
1 57 
1 58 
1 59 
1 60 
1 61 
1 62 
1 63 
1 64 
1 65 
1 66 
1 67 
1 68 
1 69 
1 70 
1 71 
1 72 
1 73 
1 74 
1 75 
1 76 
1 77 
1 78 
1 79 
1 80 
1 81 
1 82 
1 83 
1 84 
1 85 
1 86 
1 87 
1 88 
1 89 
1 90 
1 91 
1 92 
1 93 
1 94 
1 95 
1 96 
1 97 
1 98 
1 99 
1 100 
1 101 
1 102 
1 103 
1 104 
1 105 
1 106 
1 107 
1 108 
1 109 
1 110 
1 111 
1 112 
1 113 
1 114 
1 115 
1 116 
1 117 
1 118 
1 119 
1 120 
1 121 
1 122 
1 123 
1 124 
1 125 
1 126 
1 127 
1 128 
1 129 
1 130 
1 131 
1 132 
1 133 
1 134 
1 135 
1 136 
1 137 
1 138 
1 139 
1 140 
1 141 
1 142 
1 143 
1 144 
1 145 
1 146 
1 147 
1 148 
1 149 
1 150 
1 151 
1 152 
1 153 
1 154 
1 155 
1 156 
1 157 
1 158 
1 159 
1 160 
1 161 
1 162 
1 163 
1 164 
1 165 
1 166 
1 167 
1 168 
1 169 
1 170 
1 171 
1 172 
1 173 
1 174 
1 175 
1 176 
1 177 
1 178 
1 179 
1 180 
1 181 
1 182 
1 183 
1 184 
1 185 
1 186 
1 187 
1 188 
1 189 
1 190 
1 191 
1 192 
1 193 
1 194 
1 195 
1 196 
1 197 
1 198 
1 199 
1 200 
1 201 
1 202 
1 203 
1 204 
1 205 
1 206 
1 207 
1 208 
1 209 
1 210 
1 211 
1 212 
1 213 
1 214 
1 215 
1 216 
1 217 
1 218 
1 219 
1 220 
1 221 
1 222 
1 223 
1 224 
1 225 
1 226 
1 227 
1 228 
1 229 
1 230 
1 231 
1 232 
1 233 
1 234 
1 235 
1 236 
1 237 
1 238 
1 239 
1 240 
1 241 
1 242 
1 243 
1 244 
1 245 
1 246 
1 247 
1 248 
1 249 
1 250 
1 251 
1 252 
1 253 
1 254 
1 255 
1 256 
1 257 

POINT_DATA 258
FIELD FieldData 7
id 1 258 int
199 51 25 161 178 32 155 159 204 
219 228 100 97 217 171 190 231 30 
98 154 120 46 113 33 209 13 28 
44 62 70 49 42 36 78 247 54 
152 91 3 138 136 242 37 254 88 
165 112 168 94 8 147 133 45 84 
157 20 82 86 81 39 150 187 235 
14 134 239 87 149 182 203 69 125 
163 79 195 31 6 160 170 223 123 
176 241 151 108 126 16 89 115 156 
64 142 10 17 185 192 213 230 57 
77 92 106 143 200 174 175 35 59 
75 110 121 188 47 80 90 164 237 
252 109 211 233 66 55 19 61 99 
137 208 2 15 153 189 220 212 34 
130 12 162 180 244 202 5 41 43 
71 118 148 249 238 60 144 198 221 
38 122 196 11 236 1 40 95 119 
124 139 186 245 218 63 73 146 172 
7 145 105 194 58 184 197 205 27 
246 74 114 179 222 210 56 116 129 
226 251 67 102 24 48 229 232 250 
191 216 107 4 96 103 140 141 68 
111 169 193 158 117 18 104 131 225 
76 53 132 135 173 183 128 248 240 
72 9 26 181 214 215 227 201 234 
21 166 52 65 93 224 50 22 127 
177 23 29 101 167 206 243 83 85 
207 253 255 256 257 258 
type 1 258 int
1 1 1 1 1 1 1 1 1 
1 1 1 1 1 1 1 1 1 
1 1 1 1 1 1 1 1 1 
1 1 1 1 1 1 1 1 1 
1 1 1 1 1 1 1 1 1 
1 1 1 1 1 1 1 1 1 
1 1 1 1 1 1 1 1 1 
1 1 1 1 1 1 1 1 1 
1 1 1 1 1 1 1 1 1 
1 1 1 1 1 1 1 1 1 
1 1 1 1 1 1 1 1 1 
1 1 1 1 1 1 1 1 1 
1 1 1 1 1 1 1 1 1 
1 1 1 1 1 1 1 1 1 
1 1 1 1 1 1 1 1 1 
1 1 1 1 1 1 1 1 1 
1 1 1 1 1 1 1 1 1 
1 1 1 1 1 1 1 1 1 
1 1 1 1 1 1 1 1 1 
1 1 1 1 1 1 1 1 1 
1 1 1 1 1 1 1 1 1 
1 1 1 1 1 1 1 1 1 
1 1 1 1 1 1 1 1 1 
1 1 1 1 1 1 1 1 1 
1 1 1 1 1 1 1 1 1 
1 1 1 1 1 1 1 1 1 
1 1 1 1 1 1 1 1 1 
1 1 1 1 1 1 1 1 1 
1 1 1 1 1 1 
i 3 258 int
0 0 0 0 0 0 0 0 0 
0 0 0 0 0 0 0 0 0 
0 0 0 0 0 0 0 0 0 
0 0 0 0 0 0 0 0 0 
0 0 0 0 0 0 0 0 0 
0 0 0 0 0 0 0 0 0 
0 0 0 0 0 0 0 0 0 
0 0 0 0 0 0 0 0 0 
0 0 0 0 0 0 0 0 0 
0 0 0 0 0 0 0 0 0 
0 0 0 0 0 0 0 0 0 
0 0 0 0 0 0 0 0 0 
0 0 0 0 0 0 0 0 0 
0 0 0 0 0 0 0 0 0 
0 0 0 0 0 0 0 0 0 
0 0 0 0 0 0 0 0 0 
0 0 0 0 0 0 0 0 0 
0 0 0 0 0 0 0 0 0 
0 0 0 0 0 0 0 0 0 
0 0 0 0 0 0 0 0 0 
0 0 0 0 0 0 0 0 0 
0 0 0 0 0 0 0 0 0 
0 0 0 0 0 0 0 0 0 
0 0 0 0 0 0 0 0 0 
0 0 0 0 0 0 0 0 0 
0 0 0 0 0 0 0 0 0 
0 0 0 0 0 0 0 0 0 
0 0 0 0 0 0 0 0 0 
0 0 0 0 0 0 0 0 0 
0 0 0 0 0 0 0 0 0 
0 0 0 0 0 0 0 0 0 
0 0 0 0 0 0 0 0 0 
0 0 0 0 0 0 0 0 0 
0 0 0 0 0 0 0 0 0 
0 0 0 0 0 0 0 0 0 
0 0 0 0 0 0 0 0 0 
0 0 0 0 0 0 0 0 0 
0 0 0 0 0 0 0 0 0 
0 0 0 0 0 0 0 0 0 
0 0 0 0 0 0 0 0 0 
0 0 0 0 0 0 0 0 0 
0 0 0 0 0 0 0 0 0 
0 0 0 0 0 0 0 0 0 
0 0 0 0 0 0 0 0 0 
0 0 0 0 0 0 0 0 0 
0 0 0 0 0 0 0 0 0 
0 0 0 0 0 0 0 0 0 
0 0 0 0 0 0 0 0 0 
0 0 0 0 0 0 0 0 0 
0 0 0 0 0 0 0 0 0 
0 0 0 0 0 0 0 0 0 
0 0 0 0 0 0 0 0 0 
0 0 0 0 0 0 0 0 0 
0 0 0 0 0 0 0 0 0 
0 0 0 0 0 0 0 0 0 
0 0 0 0 0 0 0 0 0 
0 0 0 0 0 0 0 0 0 
0 0 0 0 0 0 0 0 0 
0 0 0 0 0 0 0 0 0 
0 0 0 0 0 0 0 0 0 
0 0 0 0 0 0 0 0 0 
0 0 0 0 0 0 0 0 0 
0 0 0 0 0 0 0 0 0 
0 0 0 0 0 0 0 0 0 
0 0 0 0 0 0 0 0 0 
0 0 0 0 0 0 0 0 0 
0 0 0 0 0 0 0 0 0 
0 0 0 0 0 0 0 0 0 
0 0 0 0 0 0 0 0 0 
0 0 0 0 0 0 0 0 0 
0 0 0 0 0 0 0 0 0 
0 0 0 0 0 0 0 0 0 
0 0 0 0 0 0 0 0 0 
0 0 0 0 0 0 0 0 0 
0 0 0 0 0 0 0 0 0 
0 0 0 0 0 0 0 0 0 
0 0 0 0 0 0 0 0 0 
0 0 0 0 0 0 0 0 0 
0 0 0 0 0 0 0 0 0 
0 0 0 0 0 0 0 0 0 
0 0 0 0 0 0 0 0 0 
0 0 0 0 0 0 0 0 0 
0 0 0 0 0 0 0 0 0 
0 0 0 0 0 0 0 0 0 
0 0 0 0 0 0 0 0 0 
0 0 0 0 0 0 0 0 0 

v 3 258 double
0 0.252767 -0.237302 0 0 -0.904948 0.137786 -0.0180087 0.00933173 
0 0 -0.424994 0 0 -0.341363 -1.24097 2.32219 -5.61653 
0 0 -0.447802 0 0 -0.433332 0 0 -0.212852 
0 0 -0.148597 0 0 -0.109847 -13.1252 -22.5468 2.33221 
0 0 1.46402 0 0 -0.15154 0 0 -0.393111 
0 0 -0.286673 0 0 -0.0973397 0 0 1.74811 
0 0 -0.705069 -6.0649 3.98686 0.536783 2.3121 1.79064 1.74719 
-2.7657 -2.73023 -3.75583 0 0 -0.649888 0.331388 0.252846 0.646454 
0 0 -0.191516 0 0 -1.03469 0 0 -0.986371 
0 0 -0.911324 0 0 -0.852464 0 0 0.0309285 
-3.05688 2.84704 0.340138 1.33277 2.14241 0.536245 0 0 0.952785 
0 0 -0.776682 0 0 -0.0421585 0 0 -0.895874 
0 0 -0.471591 0 0 -0.721501 0 0 1.50429e-11 
0 0 -0.53879 8.3297 -20.6192 4.40847 0 0 -0.0684002 
0 0 -3.75357e-08 0 0 -0.0333295 0 0 0.0356889 
-6.37957 1.0094 0.420461 0 0 1.82575e-11 0 0 0.00331119 
1.27933 0.509668 -1.97323 0 0 -0.219664 0 0 -0.490966 
0 0 -0.571898 0 0 0.0721035 0 0 -0.752648 
0 0 -18.5535 -3.92556 10.4427 1.17041 -0.118945 -0.203496 -1.05352 
0.629461 0.711784 -0.399233 0 0 -0.773494 0 0 -8.26953e-08 
-0.0344235 -0.186862 2.12167 0 0 -0.302859 9.19581 -0.499378 -28.1791 
0 0 -1.02438 0 0 -0.556448 0 0 -0.0774745 
0 0 -0.746762 0 0 -0.482137 0 0 -0.330818 
0 0 -0.220455 1.32406 7.05562 -11.7081 0 0 -0.596178 
1.75125 -4.77494 0.573778 -0.233039 0.635402 1.21379 0 0 -0.269015 
1.92795 0.458031 -8.18464 0 0 -1.07343 17.6028 1.50766 -1.6486 
0 0 -0.398507 -0.193756 15.5729 -4.83894 3.68721 -0.695914 -3.21297 
0 0 -0.347249 0 0 -0.0733052 -3.39337 6.48723 0.699635 
0 0 -7.29943 0 0 -0.595688 0.0968882 -2.17751 7.41125 
0 0 -0.724934 2.22528 -0.476179 0.194673 1.07387 2.46968 2.33288 
-14.4806 4.73066 -7.88563 -1.15924 0.72515 -0.0318443 2.18417 0.632482 -0.37197 
19.5691 2.2593 2.54798 8.46977 -0.903621 -5.50786 0 0 -0.283975 
0.0611319 -0.0382403 -0.684449 0 0 -0.101999 0 0 -5.90394 
0 0 -0.781097 0 0 -0.719294 0 0 -0.684713 
0 0 -0.497588 0 0 -0.235661 -6.12821 29.2246 -0.405285 
-1.1794 18.2826 -3.39055 1.37885 0.693322 -3.11225 0 0 -0.860558 
0 0 -0.787718 0 0 -0.673432 0 0 -0.629287 
0 0 -0.302614 0 0 -2.34656 0 0 -0.77472 
-1.25193 0.553812 -0.894263 0 0 -0.418862 0 0 -0.084832 
0 0 -0.0370082 0 0 -0.677356 0 0 -0.185875 
0 0 -0.0921895 14.63 -23.9199 56.3336 0 0 -2.62844 
0 0 -1.00991 -24.0038 -64.567 60.6466 -68.2229 -9.60606 113.32 
0 0 -0.541242 1.10626 -2.77268 0.926816 0 0 -1.08447 
53.2748 -27.9591 47.1431 0 0 -0.463743 0 0 -0.302369 
0 0 -0.14173 6.39864 -3.35214 -4.41556 -6.68053 -15.8579 10.5297 
0 0 -0.579746 0 0 -1.0418 -68.0405 -4.67671 -25.0176 
4.34885 -6.89648 -4.27165 0 0 -0.0458372 36.2311 -24.4226 27.4448 
22.5074 -38.5509 31.7862 0 0 -0.923342 0 0 -0.912551 
-4.88615 1.22036 -2.39078 1.75134 -2.82101 0.203072 37.4906 -0.687776 51.4428 
-4.56866 4.13982 -37.3934 84.588 -66.9134 -19.9274 -7.5216 4.43634 5.20434 
0 0 -0.494399 0 0 -16.6584 0 0 -0.140013 
6.29132 12.6804 12.4257 0 0 -0.625363 1.05599 7.59994 -6.00257 
-8.04635 -20.9236 9.7512 36.0142 13.7371 -7.63259 5.54987 -13.9805 2.47375 
0 0 -7.13341 0 0 -0.706295 0 0 -0.631739 
0 0 -0.601328 -2.05304 -14.5297 14.6356 8.27413 -4.2394 5.20315 
-28.2271 -13.2934 116.877 30.5568 14.872 22.1115 23.7188 19.3465 62.7016 
0 0 -0.802188 0 0 -0.491702 -2.98052 -28.0646 -2.99969 
2.64096 13.3964 -12.0549 -3.26251 -12.2211 13.535 -14.8224 8.27984 5.49271 
-25.4934 -17.2966 0.997961 -6.6918 -4.79161 6.72858 0 0 -0.325422 
-12.381 22.737 6.34676 -12.8924 19.7558 1.72782 -11.1856 -11.0699 -8.77225 
12.1507 -8.12362 -43.9865 0 0 -0.792623 0 0 -0.644002 
0 0 -0.340628 0 0 -0.138787 -2.56438 41.6487 -14.0388 
0 0 -0.879687 0 0 -0.640323 0 0 -0.58318 
0 0 -0.121619 0 0 -0.037744 38.7173 -8.14076 -1.30078 
18.5316 13.8441 -14.071 0 0 -0.996917 1.90039 3.44538 -4.97688 
-12.0302 21.3552 6.22157 0 0 -0.0948872 0 0 -0.0379892 
0 0 -0.284711 -15.6569 12.9641 -15.6189 -4.17076 -1.15514 6.74103 
1.75954 0.487324 1.12843 0 0 -0.70556 0 0 -0.687656 
0 0 -0.532904 7.49939 5.83933 -2.20008 0.281672 -0.531717 -1.01895 
-1.13825 -0.886286 0.439138 0 0 -0.401695 0 0 -0.281522 
1.19924 3.61422 -6.98106 0 0 -5.75053 0 0 -1.01114 
0 0 -0.687411 0 0 -0.577784 0 0 -0.124562 
0 0 -0.782323 -4.75064 -6.8641 -0.770047 0 0 -0.572389 
0 0 -0.551543 0 0 -0.360738 0 0 -0.329101 
-72.9323 -0.258454 -8.7389 0 0 -0.0404417 0 0 38.8382 
1.27669 5.65845 -14.7515 0 0 -1.06093 0 0 -0.990785 
0 0 -13.7107 0 0 -0.175329 -11.9377 -22.0426 -4.58887 
8.89331 -22.7151 -28.9475 -14.2496 -14.9779 -5.92537 -0.0479301 -0.963529 77.201 
28.9979 -7.04972 -2.3602 -1.73973 16.9065 -1.46522 0 0 -0.90225 
0 0 -0.836768 8.97043 2.32584 2.13048 -0.549567 0.344473 0.0669327 
-2.5581 1.1955 -2.51337 0 0 -1.00599 0 0 -0.585878 
0 0 -0.344061 0 0 -0.999614 0 0 -0.984899 
0 0 -0.69624 0 0 -0.415674 0 0 -0.204023 
0 0 -0.0600617 -0.58235 -4.78572 0.542408 0 0 -0.752157 
0.617219 0.648766 0.36987 0 0 -0.034801 0 0 -0.022048 
0 0 -0.0115022 0 0 -0.00610673 0 0 -0.00193748 

f 3 258 double
0 0 -2.27547e-06 0 0 -2.27547e-06 0 0 -3.55542e-05 
0 0 -7.67972e-06 0 0 -7.67972e-06 0 0 -2.27547e-06 
0 0 -3.55542e-05 0 0 -2.27547e-06 0 0 -2.27547e-06 
0 0 -1.82038e-05 0 0 -2.27547e-06 0 0 -2.27547e-06 
0 0 -1.82038e-05 0 0 -2.27547e-06 0 0 -7.67972e-06 
0 0 -7.67972e-06 0 0 -2.27547e-06 0 0 -1.82038e-05 
0 0 -6.14377e-05 0 0 -7.67972e-06 0 0 -1.82038e-05 
0 0 -7.67972e-06 0 0 -2.27547e-06 0 0 -0.00014563 
0 0 -2.27547e-06 0 0 -2.27547e-06 0 0 -7.67972e-06 
0 0 -7.67972e-06 0 0 -0.00014563 0 0 -2.27547e-06 
0 0 -2.27547e-06 0 0 -7.67972e-06 0 0 -9.75608e-05 
0 0 -2.27547e-06 0 0 -7.67972e-06 0 0 -1.82038e-05 
0 0 -2.27547e-06 0 0 -7.67972e-06 0 0 0 
0 0 -2.27547e-06 0 0 -7.67972e-06 0 0 -2.27547e-06 
0 0 -9.64215e-09 0 0 -7.67972e-06 0 0 -2.27547e-06 
0 0 -2.27547e-06 0 0 -3.19881e-13 0 0 2.49239e-06 
0 0 -1.82038e-05 0 0 -2.27547e-06 0 0 -2.27547e-06 
0 0 -2.27547e-06 0 0 -3.55542e-05 0 0 -3.55542e-05 
0 0 -1.82038e-05 5.24344e-05 -8.86267e-05 -0.00158652 0 0 -6.14377e-05 
0 0 -1.82038e-05 0 0 -7.67972e-06 0 0 3.60118e-10 
0 0 -3.55542e-05 0 0 -2.27547e-06 0 0 -2.27547e-06 
0 0 -2.27547e-06 0 0 -2.27547e-06 0 0 -2.27547e-06 
0 0 -2.27547e-06 0 0 -2.27547e-06 0 0 -7.67972e-06 
0 0 -1.82038e-05 0 0 -7.67972e-06 0 0 -2.27547e-06 
0 0 -2.27547e-06 0 0 -1.82038e-05 0 0 -2.27547e-06 
0 0 -6.14377e-05 0 0 -1.82038e-05 0 0 -9.75608e-05 
0 0 -1.82038e-05 0.0155573 -0.000977965 0.000159652 0 0 -1.82038e-05 
0 0 -2.27547e-06 0 0 -2.27547e-06 0 0 -7.67972e-06 
0 0 -3.55542e-05 0 0 -6.14377e-05 0 0 -1.82038e-05 
0 0 -2.27547e-06 0 0 -3.55542e-05 0 0 -2.27547e-06 
0 0 -1.82038e-05 0 0 -7.67972e-06 0 0 -2.27547e-06 
0 0 -7.67972e-06 0 0 -3.55542e-05 0 0 -7.67972e-06 
0 0 -0.00014563 0 0 -2.27547e-06 0 0 -6.14377e-05 
0 0 -7.67972e-06 0 0 -1.82038e-05 0 0 -2.27547e-06 
0 0 -2.27547e-06 0 0 -7.67972e-06 0 0 -1.82038e-05 
0 0 -2.27547e-06 0 0 -6.14377e-05 0 0 -2.27547e-06 
0 0 -7.67972e-06 0 0 -2.27547e-06 0 0 -2.27547e-06 
0 0 -6.14377e-05 0 0 -2.27547e-06 0 0 -1.82038e-05 
0 0 -7.67972e-06 0 0 -2.27547e-06 0 0 -2.27547e-06 
0 0 -2.27547e-06 0 0 -2.27547e-06 0 0 -6.14377e-05 
0 0 -7.67972e-06 0 0 -2.27547e-06 0 0 -1.82038e-05 
0 0 -3.55542e-05 0 0 -2.27547e-06 0 0 -7.67972e-06 
0 0 -2.27547e-06 0 0 -0.00014563 0 0 -9.75608e-05 
0 0 -1.82038e-05 0 0 -2.27547e-06 0 0 -2.27547e-06 
0 0 -7.67972e-06 0 0 -9.75608e-05 0 0 -2.27547e-06 
0 0 -2.27547e-06 0 0 -7.67972e-06 0 0 -2.27547e-06 
-0.118262 -0.00367094 0.000952726 0 0 -2.27547e-06 0 0 -7.67972e-06 
-0.0475329 -0.0614367 -0.0188708 0 0 -7.67972e-06 0 0 -2.27547e-06 
0 0 -2.27547e-06 0 0 -3.55542e-05 0 0 -2.27547e-06 
-0.00163144 0.00334133 1.31603 0 0 -2.27547e-06 0 0 -9.75608e-05 
0 0 -1.82038e-05 0 0 -3.55542e-05 0 0 -6.14377e-05 
0 0 -7.67972e-06 0 0 -1.82038e-05 0 0 -2.27547e-06 
0 0 -7.67972e-06 0 0 -0.00014563 0 0 -7.67972e-06 
0 0 -2.27547e-06 0 0 -2.27547e-06 0 0 -2.27547e-06 
0 0 -7.67972e-06 0 0 -1.82038e-05 0 0 -2.27547e-06 
0.0475329 0.0614367 0.0187738 0 0 -1.82038e-05 0 0 -9.75608e-05 
0 0 -1.82038e-05 0 0 -2.27547e-06 0 0 -1.82038e-05 
0 0 -2.27547e-06 0 0 -6.14377e-05 0 0 -2.27547e-06 
0.00644252 -0.0117325 -0.0273615 0 0 -7.67972e-06 0 0 -2.27547e-06 
0 0 -3.55542e-05 0 0 -3.55542e-05 -0.00389468 0.012167 -0.0124449 
0.030672 0.0120272 0.148626 0 0 -7.67972e-06 0 0 -1.82038e-05 
0 0 -2.27547e-06 0 0 -2.27547e-06 0 0 -1.82038e-05 
0 0 -2.27547e-06 0 0 -2.27547e-06 0 0 -2.27547e-06 
0 0 -7.67972e-06 0 0 -3.55542e-05 0 0 -2.27547e-06 
0 0 -2.27547e-06 0 0 -3.55542e-05 0 0 -3.55542e-05 
0 0 -7.67972e-06 0 0 -2.27547e-06 0 0 -3.55542e-05 
0 0 -9.75608e-05 0 0 -7.67972e-06 0 0 -7.67972e-06 
0 0 -1.82038e-05 0 0 -2.27547e-06 0 0 -6.14377e-05 
0 0 -2.27547e-06 0 0 -2.27547e-06 0 0 -0.00014563 
0 0 -1.82038e-05 0 0 -3.55542e-05 0 0 -1.82038e-05 
0 0 -0.000207352 0 0 -7.67972e-06 0 0 -2.27547e-06 
0 0 -2.27547e-06 0 0 -2.27547e-06 0 0 -2.27547e-06 
0 0 -2.27547e-06 0 0 -2.27547e-06 0 0 -2.27547e-06 
0 0 -2.27547e-06 0 0 -2.27547e-06 0 0 -2.27547e-06 
0 0 -2.27547e-06 0 0 -2.27547e-06 0 0 -7.67972e-06 
0 0 -6.14377e-05 0 0 -9.75608e-05 0 0 -9.75608e-05 
0 0 -2.27547e-06 0 0 -2.27547e-06 0 0 -2.27547e-06 
0 0 -6.14377e-05 0 0 -2.27547e-06 0 0 -1.82038e-05 
0 0 -7.67972e-06 0 0 -2.27547e-06 0 0 -2.27547e-06 
0 0 -2.27547e-06 0 0 -2.27547e-06 0 0 -3.55542e-05 
0 0 -6.14377e-05 0 0 -7.67972e-06 0 0 -2.27547e-06 
0 0 -7.67972e-06 0 0 -7.67972e-06 0 0 -7.67972e-06 
0 0 -2.27547e-06 0 0 -1.82038e-05 0 0 -2.27547e-06 
0 0 -1.82038e-05 0 0 -2.27547e-06 0 0 -2.27547e-06 
0 0 -6.14377e-05 0 0 -2.27547e-06 0 0 -2.27547e-06 
0 0 -2.27547e-06 0 0 -2.27547e-06 0 0 -2.27547e-06 

radius 1 258 double
0.0005 0.0005 0.00125 0.00075 0.00075 0.0005 0.00125 0.0005 0.0005 
0.001 0.0005 0.0005 0.001 0.0005 0.00075 0.00075 0.0005 0.001 
0.0015 0.00075 0.001 0.00075 0.0005 0.002 0.0005 0.0005 0.00075 
0.00075 0.002 0.0005 0.0005 0.00075 0.00175 0.0005 0.00075 0.001 
0.0005 0.00075 0.0005 0.0005 0.00075 0.0005 0.002 0.00075 0.0005 
0.0005 0.00075 0.0015 0.001 0.0005 0.0005 0.0005 0.00125 0.00125 
0.001 0.0005 0.0015 0.001 0.00075 0.00075 0.00125 0.0005 0.0005 
0.0005 0.0005 0.0005 0.0005 0.0005 0.00075 0.001 0.00075 0.0005 
0.0005 0.001 0.0005 0.0015 0.001 0.00175 0.001 0.00175 0.001 
0.0005 0.0005 0.00075 0.00125 0.0015 0.001 0.0005 0.00125 0.0005 
0.001 0.00075 0.0005 0.00075 0.00125 0.00075 0.002 0.0005 0.0015 
0.00075 0.001 0.0005 0.0005 0.00075 0.001 0.0005 0.0015 0.0005 
0.00075 0.0005 0.0005 0.0015 0.0005 0.001 0.00075 0.0005 0.0005 
0.0005 0.0005 0.0015 0.00075 0.0005 0.001 0.00125 0.0005 0.00075 
0.0005 0.002 0.00175 0.001 0.0005 0.0005 0.00075 0.00175 0.0005 
0.0005 0.00075 0.0005 0.002 0.0005 0.00075 0.00125 0.00075 0.0005 
0.0005 0.00125 0.0005 0.002 0.0005 0.00175 0.001 0.00125 0.0015 
0.00075 0.001 0.0005 0.00075 0.002 0.00075 0.0005 0.0005 0.0005 
0.00075 0.001 0.0005 0.0015 0.001 0.00175 0.001 0.0005 0.001 
0.0005 0.0015 0.0005 0.00075 0.00075 0.0005 0.00125 0.00125 0.00125 
0.00175 0.00075 0.001 0.0005 0.0005 0.001 0.0005 0.0005 0.0005 
0.00075 0.00125 0.0005 0.0005 0.00125 0.00125 0.00075 0.0005 0.00125 
0.00175 0.00075 0.00075 0.001 0.0005 0.0015 0.0005 0.0005 0.002 
0.001 0.00125 0.001 0.00225 0.00075 0.0005 0.0005 0.0005 0.0005 
0.0005 0.0005 0.0005 0.0005 0.0005 0.0005 0.0005 0.0005 0.00075 
0.0015 0.00175 0.00175 0.0005 0.0005 0.0005 0.0015 0.0005 0.001 
0.00075 0.0005 0.0005 0.0005 0.0005 0.00125 0.0015 0.00075 0.0005 
0.00075 0.00075 0.00075 0.0005 0.001 0.0005 0.001 0.0005 0.0005 
0.0015 0.0005 0.0005 0.0005 0.0005 0.0005 
omega 3 258 double
-5.27637 0 0 0 0 0 333.048 -9.52827 36.6177 
0 0 0 0 0 0 -15560.5 -1815.2 2288.05 
0 0 0 0 0 0 0 0 0 
0 0 0 0 0 0 1165.18 -537.695 -49.8909 
0 0 0 0 0 0 0 0 0 
0 0 0 0 0 0 0 0 0 
0 0 0 -291.542 1351.24 1860.52 -681.847 2202.59 589.13 
-876.587 2182.53 -533.268 0 0 0 -125.834 165.012 0.611714 
0 0 0 0 0 0 0 0 0 
0 0 0 0 0 0 0 0 0 
253.379 297.176 28.4915 -589.558 407.932 35.1117 0 0 0 
0 0 0 0 0 0 0 0 0 
0 0 0 0 0 0 0 0 0 
0 0 0 40394.6 1770.43 -5032.47 0 0 0 
0 0 0 0 0 0 0 0 0 
-2355.83 -7704.9 3061.47 0 0 0 0 0 0 
-186.519 -214.275 -273.926 0 0 0 0 0 0 
0 0 0 0 0 0 0 0 0 
0 0 0 48202 33026.2 14005.7 64.4405 33.5877 -50.3757 
256.323 -129.043 -200.229 0 0 0 0 0 0 
146.115 -26.9171 1.87638e-13 0 0 0 20451.8 1831.33 6667.49 
0 0 0 0 0 0 0 0 0 
0 0 0 0 0 0 0 0 0 
0 0 0 12119.7 15792.8 6866.13 0 0 0 
-981.974 -360.148 -4.43176e-12 -634.359 -232.657 -2.77622e-13 0 0 0 
631.649 687.498 526.681 0 0 0 -98.6941 916.452 -3140.23 
0 0 0 8929.08 799.553 1423.99 -409.827 -1526.75 -231.653 
0 0 0 0 0 0 2123.73 1008.17 -8681.73 
0 0 0 0 0 0 1803.01 5316.02 832.056 
0 0 0 -10.1448 695.795 351.809 -1998.04 20.127 756.627 
4643.83 13564.6 1550.03 -857.456 -1370.75 8.65475e-13 194.418 -541.986 1173.43 
-3493.99 -2119.21 8566.46 -895.574 -9113.41 1215.54 0 0 0 
-16.9825 -27.1487 1.7151e-14 0 0 0 0 0 0 
0 0 0 0 0 0 0 0 0 
0 0 0 0 0 0 30900.8 7396.46 4725.61 
36275.2 4676.89 8832.78 -170.892 -13.7828 -293.941 0 0 0 
0 0 0 0 0 0 0 0 0 
0 0 0 0 0 0 0 0 0 
177.327 237.02 -533.268 0 0 0 0 0 0 
0 0 0 0 0 0 0 0 0 
0 0 0 92431.5 -111900 -40468.7 0 0 0 
0 0 0 -16180.2 52578 49472.2 79573.3 -41799.4 18201.4 
0 0 0 273.172 219.907 279.728 0 0 0 
17068.1 31077.5 -847.335 0 0 0 0 0 0 
0 0 0 -1903.72 -3633.89 -15.6556 13571.8 -7419.98 -2341.99 
0 0 0 0 0 0 2924 7745.09 2671.16 
-1268.96 2161.34 -3417.84 0 0 0 13719.8 18452.6 -1616.87 
12484.9 16752.9 4217.17 0 0 0 0 0 0 
-1372.65 -3384.05 1630.93 181.348 545.76 -1331.6 -8638.39 -45056.6 5655.95 
2092.93 2346.81 -13.8547 43372 59764.2 3283.34 -1287.64 -2209.01 10.8791 
0 0 0 0 0 0 0 0 0 
-9158.02 4543.71 2.2724e-12 0 0 0 14807.8 -1787.47 15770.7 
15537.6 893.544 7312.63 6873.28 -18039.6 124.8 -3747.95 528.989 8398.11 
0 0 0 0 0 0 0 0 0 
0 0 0 -6911.08 -679.166 -1596.82 -4685.58 -2421.23 5184.26 
-12932.5 15472.7 1804.83 -9269.39 19433.7 -267.725 -8424.25 11510.4 -365.56 
0 0 0 0 0 0 11180.9 5574.16 9068.85 
26706.3 -5147.67 -1708.37 3967.72 749.695 192.174 -5850.98 -9419.04 -12691.7 
-15927.4 -7679.18 -27437.7 2204 -8287.87 -72.7886 0 0 0 
14766.9 9664.52 -984.332 -13555.3 -6388.83 585.111 2313.28 -1076.47 1803.7 
-4678.21 -7535.05 -1179.54 0 0 0 0 0 0 
0 0 0 0 0 0 46413.5 778.604 -1747.29 
0 0 0 0 0 0 0 0 0 
0 0 0 0 0 0 -22443.8 -33136.4 -55546.3 
28141.8 -35959.2 -7888.85 0 0 0 -772.287 -955.672 -1170.42 
10930.1 6423.71 -910.711 0 0 0 0 0 0 
0 0 0 17132.1 20851.7 4202.59 -816.723 2948.87 -4.93371e-12 
-258.561 933.564 -1.56178e-12 0 0 0 0 0 0 
0 0 0 11659.1 -14973.7 -1.11139e-11 -24.8922 48.7696 -123.468 
340.192 -436.905 -6.96221e-13 0 0 0 0 0 0 
1604.34 -532.385 -1.20015 0 0 0 0 0 0 
0 0 0 0 0 0 0 0 0 
0 0 0 -1058.77 -1925.27 -121.859 0 0 0 
0 0 0 0 0 0 0 0 0 
27.6408 -7897.99 -0.607083 0 0 0 0 0 0 
4248.79 -724.927 -285.556 0 0 0 0 0 0 
0 0 0 0 0 0 -14251.4 45524.6 46546.5 
-21052.1 -4190.8 -210.6 -29639 28197.8 -6.34367e-12 -362.295 -140.499 3.62853 
-5481.95 -1112.09 3977.12 -6222.9 2370.63 -14706.4 0 0 0 
0 0 0 -1296.4 4909.52 73.9505 -115.165 -183.582 -0.411275 
538.349 1151.94 -2.51219e-11 0 0 0 0 0 0 
0 0 0 0 0 0 0 0 0 
0 0 0 0 0 0 0 0 0 
0 0 0 -765.058 1324.58 9585.17 0 0 0 
-211.656 201.364 -7.86935e-14 0 0 0 0 0 0 
0 0 0 0 0 0 0 0 0 

