# vtk DataFile Version 4.0
Generated by LIGGGHTS
ASCII
DATASET POLYDATA
POINTS 733 float
0.00371465 0.0050838 0.0219998 0.00312169 0.0070826 0.0205 0.00719565 0.00398245 0.0206908 
0.00795276 0.0023541 0.0205 0.0100646 0.000850294 0.0205314 0.00867908 0.00508346 0.0205 
0.0106776 0.00334218 0.0206369 0.010732 0.00555927 0.0219998 0.0122421 0.00193649 0.0207677 
0.0132268 0.00646178 0.0213901 0.0102872 0.00243229 0.0205 0.00957255 0.000500153 0.0214995 
0.0114404 0.00296981 0.0218051 0.00839336 0.000814695 0.0218008 0.0165899 0.00451425 0.0205013 
0.0195548 0.000777476 0.02075 0.0229181 0.000754924 0.0208267 0.0165892 0.00309102 0.0215207 
0.0215337 0.00481713 0.0205 0.0224157 0.00315157 0.0205004 0.0207341 0.0023347 0.0209993 
0.0174228 0.00616422 0.02153 0.0189498 0.00387393 0.0212488 0.0219006 0.00364216 0.0216175 
0.0232492 0.00225228 0.0207672 0.0200722 0.00552861 0.0207592 0.0232407 0.00406337 0.0207499 
0.0216283 0.000998687 0.0221876 0.0232466 0.00529418 0.0205 0.0213428 0.00585339 0.0221786 
0.0229542 0.00248083 0.0224851 0.020655 0.00424738 0.0222203 0.00596454 0.0092993 0.0205 
0.00688023 0.0117649 0.0205 0.00341374 0.0136349 0.0205063 0.00517504 0.0111805 0.0215746 
0.0065985 0.0128107 0.0205001 0.00622382 0.0110005 0.020512 0.00254932 0.00903154 0.0209999 
0.00539208 0.0101447 0.0205 0.00391213 0.00965592 0.0211177 0.00160254 0.0107708 0.02075 
0.00726996 0.00962791 0.0221625 0.000561576 0.0088646 0.0205395 0.00491563 0.00718151 0.0213147 
0.00771265 0.00952765 0.0205258 0.00152382 0.00928075 0.0220695 0.00548949 0.0135465 0.02075 
0.00155345 0.0140778 0.0214999 0.00312888 0.010091 0.0221477 0.0154918 0.00797017 0.022264 
0.0104331 0.00843895 0.0205 0.00793631 0.0111587 0.0207878 0.0137193 0.00711849 0.0207946 
0.0104124 0.00965477 0.0206247 0.0150123 0.00953394 0.02075 0.0150828 0.0142017 0.0205 
0.0136945 0.0108294 0.0210328 0.00820047 0.0129108 0.0207648 0.0132802 0.00864036 0.0218484 
0.0144941 0.00826794 0.0205007 0.0106993 0.0124006 0.0205324 0.0087008 0.00758485 0.0220373 
0.0167722 0.0109484 0.0210243 0.0162858 0.00837009 0.0207547 0.0214069 0.00992018 0.02075 
0.0199203 0.0121173 0.0205024 0.022495 0.00810558 0.0215166 0.0234975 0.0104147 0.0205022 
0.0176885 0.00893171 0.0208143 0.0197843 0.00763379 0.0212499 0.0163845 0.00959287 0.0205004 
0.0229081 0.0118735 0.0213938 0.0180102 0.0120641 0.0205 0.0174366 0.0139366 0.0217635 
0.00368142 0.0171473 0.0207677 0.00763353 0.0149252 0.0205003 0.000769172 0.0156693 0.0205 
0.000541861 0.0174133 0.0205 0.00557987 0.017781 0.0212503 0.00267626 0.0186476 0.0210996 
0.00772866 0.0162161 0.0221733 0.00899677 0.015391 0.0205 0.00860453 0.0175121 0.0205764 
0.00950196 0.0208375 0.0221197 0.0121084 0.0185288 0.021175 0.0090729 0.0142077 0.0209854 
0.014442 0.0173448 0.0205 0.0148533 0.0201009 0.0222472 0.0138477 0.0178779 0.0213378 
0.0142893 0.0202393 0.0207154 0.0125665 0.0206719 0.0205 0.0103988 0.0157426 0.0207626 
0.0205856 0.0157368 0.0207419 0.023254 0.0189849 0.0205 0.0224641 0.0154926 0.0218091 
0.0234271 0.0166624 0.0205 0.0232246 0.0202534 0.0207476 0.021949 0.0168205 0.0207563 
0.0196254 0.0169972 0.0205 0.0181099 0.0173773 0.0221521 0.021671 0.0207085 0.0223027 
0.0179886 0.0203797 0.0218535 0.00187005 0.0231692 0.0205 0.00705893 0.0241618 0.0209003 
0.00129648 0.0272494 0.0208437 0.00687499 0.0276572 0.0220178 0.00456706 0.0216507 0.0209999 
0.000504168 0.0281635 0.0205008 0.014007 0.0217458 0.0209999 0.00894142 0.0233136 0.020818 
0.0119362 0.0228436 0.0213175 0.0139618 0.0271978 0.0224546 0.0232219 0.0250279 0.02075 
0.0234475 0.0221872 0.0205 0.0223615 0.0217003 0.0205219 0.0180344 0.0245336 0.0217284 
0.0167506 0.0231312 0.0209016 0.0209766 0.0248228 0.0208441 0.0192424 0.0241803 0.0213418 
0.0165461 0.0276555 0.0209467 0.0175221 0.0281436 0.0205 0.0166993 0.0271188 0.0224212 
0.00473125 0.0297964 0.0220482 0.00182477 0.0296703 0.021862 0.00306507 0.0333222 0.0220101 
0.000572769 0.0311607 0.0205657 0.00681623 0.0308449 0.02075 0.000780374 0.0323941 0.020756 
0.00568261 0.031941 0.0222027 0.0076724 0.0333453 0.0207533 0.0076959 0.0350897 0.0210152 
0.0121175 0.0307444 0.0212499 0.0135521 0.0345514 0.020501 0.0137053 0.0334722 0.0205003 
0.014221 0.0321482 0.021004 0.0149538 0.0285331 0.0205107 0.0082593 0.0344237 0.0205025 
0.0147593 0.0349302 0.0208315 0.0108695 0.0340539 0.0225669 0.014704 0.0298705 0.0224694 
0.00918077 0.0349333 0.0223655 0.0160238 0.0329631 0.0205 0.0171533 0.0297047 0.0212499 
0.0232406 0.0339531 0.0209291 0.0170767 0.0332907 0.0205 0.0193954 0.0338379 0.0209629 
0.0198294 0.0284124 0.0208764 0.0173255 0.0352796 0.0220636 0.00254405 0.040762 0.0214702 
0.00529223 0.0418783 0.0205 0.0010084 0.041323 0.0210251 0.00509449 0.0399781 0.0209999 
0.00776453 0.0374986 0.0207795 0.0028439 0.0426254 0.02075 0.00240966 0.0361301 0.0205 
0.00368024 0.0380227 0.0206279 0.00722391 0.0417262 0.0217499 0.00270525 0.0360428 0.0218144 
0.000560697 0.0382719 0.021939 0.0135364 0.0355743 0.0205 0.0106405 0.0362982 0.0205 
0.0149146 0.0380857 0.0205 0.013877 0.0385513 0.0207944 0.0143189 0.0377698 0.0212468 
0.0116504 0.0404492 0.0220454 0.010432 0.0361594 0.0224602 0.0162039 0.0413196 0.0211788 
0.0183003 0.0406464 0.0205 0.0164767 0.0388831 0.0205 0.0177348 0.0392258 0.0205 
0.0234582 0.0401577 0.0213087 0.00334758 0.0496576 0.0205327 0.00770619 0.0465466 0.0207782 
0.00148724 0.0486947 0.0205072 0.000507329 0.0489991 0.0205001 0.000501923 0.0479769 0.020571 
0.0029676 0.04719 0.0223008 0.00597691 0.045352 0.0210906 0.00933444 0.0449004 0.0205806 
0.00933445 0.0485844 0.0205 0.0109834 0.0454169 0.0205 0.011737 0.0477914 0.0217547 
0.00916948 0.0461943 0.0208902 0.0137366 0.0441563 0.0222504 0.0100597 0.0462867 0.0217784 
0.0234448 0.0460707 0.0205148 0.0186102 0.0445547 0.020823 0.0228346 0.0473123 0.021094 
0.023231 0.0489824 0.02075 0.0202875 0.0468175 0.0214999 0.0221566 0.0495631 0.0210851 
0.0184773 0.0474769 0.0225519 0.0183673 0.0491951 0.0215015 0.0161525 0.0490209 0.0205 
0.0173969 0.0459402 0.0219688 0.0221755 0.042659 0.021861 0.0209664 0.0489211 0.0214909 
0.00390048 0.0500946 0.0217251 0.0012711 0.0501134 0.0211523 0.00433811 0.0498801 0.0205024 
0.000705778 0.0515436 0.0206972 0.000501435 0.0526113 0.0205 0.00667138 0.0531774 0.0207499 
0.00475021 0.0512387 0.0210028 0.00333259 0.0507025 0.0205 0.00532253 0.0534169 0.0205015 
0.00184278 0.0537192 0.0205986 0.000944708 0.0542558 0.0205857 0.00217767 0.0529287 0.0220713 
0.000777293 0.0557184 0.0212394 0.00727944 0.0546319 0.0218989 0.00751492 0.0497334 0.021577 
0.0137561 0.0511961 0.0212913 0.0157981 0.0505985 0.0205 0.0149652 0.0553739 0.02075 
0.0131464 0.0538593 0.021535 0.00935878 0.0547105 0.0217647 0.0157458 0.0529263 0.0214923 
0.012056 0.0562032 0.0221164 0.0234948 0.0502147 0.0206314 0.0176046 0.0552099 0.0212499 
0.0234641 0.0538932 0.0205335 0.0201881 0.0564893 0.0212643 0.0234996 0.0563916 0.0205001 
0.0234105 0.0522751 0.0205007 0.021999 0.0558153 0.0216585 0.0197023 0.0532499 0.0214958 
0.000919525 0.0591549 0.0205773 0.00173944 0.0614492 0.021509 0.00390915 0.0627265 0.0209999 
0.00159606 0.0635974 0.0221941 0.00572793 0.0576126 0.0215675 0.00381978 0.0608969 0.0215158 
0.0117141 0.0571403 0.0205303 0.00832152 0.0611837 0.020801 0.0113678 0.0630144 0.0205171 
0.0111191 0.0610409 0.02075 0.0132933 0.058905 0.0210591 0.00984494 0.0608347 0.0207334 
0.0154117 0.0575598 0.0217883 0.0135195 0.0615721 0.0217571 0.0111834 0.0621152 0.0221201 
0.00893593 0.0593072 0.0211013 0.00966426 0.0623198 0.0218917 0.0131199 0.0572186 0.0208413 
0.022446 0.0575717 0.0212499 0.0229654 0.0598602 0.0210116 0.023149 0.0615577 0.0205 
0.0214238 0.0600524 0.0205013 0.0167089 0.0582043 0.02075 0.0210495 0.0610187 0.0206899 
0.0231459 0.0629588 0.0205 0.0204747 0.0600865 0.0208809 0.0185391 0.0613353 0.0205 
0.016741 0.0608518 0.0206259 0.0198501 0.0589743 0.020862 0.0193365 0.0587659 0.0219892 
0.023446 0.0601053 0.0224496 0.00782069 0.0639784 0.0213497 0.00239896 0.0680923 0.0205 
0.0010353 0.0638658 0.0209743 0.00237947 0.069197 0.0205 0.000798609 0.0650842 0.0213313 
0.00110543 0.0678124 0.0213836 0.00300575 0.0701494 0.0222738 0.00703287 0.0681944 0.0219834 
0.00113084 0.0699692 0.0210031 0.00355656 0.0708046 0.0205098 0.00817373 0.070923 0.0218171 
0.0104761 0.0675497 0.0205222 0.00877689 0.0667278 0.0222595 0.0116752 0.0653498 0.0217499 
0.00920224 0.0683509 0.020751 0.0154391 0.0642574 0.0222754 0.011594 0.0705252 0.0220748 
0.0184949 0.0641827 0.0222595 0.0162392 0.0688775 0.0205 0.0171341 0.0684266 0.0213225 
0.023022 0.0682677 0.0207857 0.0204338 0.0690794 0.0205 0.0234962 0.0693912 0.0205 
0.0225868 0.0699118 0.0204999 0.0201264 0.0674881 0.0205 0.0216574 0.0691171 0.0207605 
0.0174088 0.066381 0.0205 0.0234001 0.0701102 0.0212026 0.0231427 0.0667923 0.0214679 
0.0172182 0.0666364 0.0223929 0.0206147 0.066157 0.0210202 0.0233219 0.0692861 0.0220907 
0.00269714 0.0740076 0.0205 0.00284094 0.0764605 0.0209999 0.000510118 0.076101 0.0205869 
0.00784597 0.0763918 0.0208498 0.00095624 0.0772488 0.0208148 0.0059208 0.0760384 0.0212504 
0.00728849 0.0774842 0.020499 0.00343818 0.0750698 0.0219249 0.0020305 0.0771184 0.0220968 
0.00114231 0.0742707 0.0223031 0.000752798 0.0772277 0.0223318 0.00645664 0.0718117 0.0223656 
0.00520486 0.0720096 0.0212742 0.00871776 0.0738706 0.0218481 0.0137221 0.0720549 0.0208764 
0.00942613 0.0718276 0.0205 0.0138037 0.0774976 0.0205 0.00899429 0.0767495 0.0205126 
0.01308 0.0765047 0.0214266 0.0122388 0.0773823 0.0205139 0.0108266 0.0759387 0.0223721 
0.00874622 0.0772483 0.0216966 0.0100246 0.0749371 0.0206509 0.015402 0.0771186 0.0207764 
0.00966047 0.0774975 0.0205063 0.00996882 0.076154 0.0205 0.0114144 0.0738904 0.0211779 
0.0111573 0.0774865 0.0205 0.0105831 0.0719797 0.0210547 0.0127487 0.0729422 0.0211337 
0.0158295 0.0775 0.02199 0.0169433 0.0712772 0.0205 0.0212956 0.0717484 0.0217487 
0.0223621 0.0749686 0.0209999 0.023403 0.0773797 0.0208001 0.0209184 0.0748868 0.0205044 
[...]
POINT_DATA 733
FIELD FieldData 7
id 1 733 int
324 448 710 100 199 32 395 213 474 
282 590 176 148 364 51 178 161 155 
159 204 219 126 108 333 142 200 340 
123 452 544 273 518 228 274 360 64 
380 89 442 490 527 75 581 368 588 
501 256 154 98 722 97 217 275 289 
307 46 10 80 556 233 636 592 714 
311 171 190 319 57 143 192 185 209 
6 113 293 44 121 13 137 439 174 
35 287 110 62 252 342 71 591 189 
465 43 709 49 78 308 231 330 41 
146 697 350 719 70 482 12 180 678 
162 260 1 118 611 42 272 130 512 
582 279 628 345 400 726 337 36 249 
259 534 522 672 451 386 269 348 505 
54 152 433 91 626 695 247 261 198 
374 353 640 698 285 354 3 122 423 
347 265 535 366 402 680 519 405 138 
328 309 514 453 641 410 242 268 394 
326 331 496 567 357 525 487 712 40 
88 335 367 533 403 371 415 485 73 
112 168 470 526 573 8 499 650 702 
361 378 608 244 165 254 94 264 379 
421 105 7 226 373 705 431 133 306 
227 24 653 692 445 48 186 45 179 
222 67 258 332 263 86 216 540 140 
147 344 129 81 414 493 502 455 181 
703 706 711 84 157 104 271 313 18 
225 255 355 469 38 456 586 396 299 
76 351 558 243 629 135 167 187 464 
325 387 26 473 595 302 158 235 408 
39 257 14 134 239 404 102 52 117 
612 679 418 20 210 149 182 69 443 
101 215 565 560 22 184 720 82 358 
288 87 125 79 195 72 29 435 498 
173 277 206 563 605 398 141 163 9 
329 93 481 234 655 85 253 312 596 
291 388 466 300 151 561 28 599 684 
320 509 25 220 170 542 362 370 34 
507 524 16 459 598 15 241 676 164 
701 613 515 723 572 31 160 17 92 
202 136 322 2 281 5 577 604 290 
106 211 724 153 486 390 427 447 569 
392 156 208 237 488 625 673 318 549 
571 188 663 677 686 691 693 61 115 
47 33 66 372 77 365 419 432 538 
334 172 109 652 659 631 725 583 323 
401 175 436 646 463 399 296 713 30 
59 450 657 715 139 578 120 212 90 
369 585 688 600 548 19 223 503 508 
529 550 245 576 315 286 587 700 685 
476 662 718 675 500 238 523 557 566 
623 639 648 338 483 430 479 412 236 
638 668 60 494 597 617 624 627 425 
594 553 144 221 416 492 609 717 382 
543 278 99 55 547 145 472 537 316 
375 462 506 545 551 579 603 620 669 
704 343 441 570 615 406 521 647 409 
607 457 305 489 124 304 471 384 426 
580 584 504 554 536 602 397 37 196 
495 95 428 682 11 687 444 424 467 
621 633 674 729 517 74 218 670 381 
694 276 230 665 614 251 510 446 601 
634 637 193 681 201 454 531 520 346 
327 301 491 574 618 642 658 530 484 
303 349 564 649 661 671 689 690 707 
716 728 383 475 116 417 314 232 205 
96 103 270 194 53 532 619 667 708 
727 654 438 413 497 632 643 696 341 
721 610 150 321 562 411 480 250 63 
191 461 477 478 593 616 352 107 356 
56 267 132 183 422 437 528 363 555 
651 660 295 114 546 359 119 214 376 
339 511 552 575 589 666 131 541 169 
246 224 266 336 317 377 385 630 645 
683 4 197 229 284 203 50 127 283 
468 513 539 559 568 644 635 68 65 
262 622 420 407 292 128 248 23 298 
393 516 434 207 664 699 280 429 449 
606 297 111 58 177 440 294 310 240 
389 458 21 27 166 83 391 460 656 
730 731 732 733 
type 1 733 int
1 1 1 1 1 1 1 1 1 
1 1 1 1 1 1 1 1 1 
1 1 1 1 1 1 1 1 1 
1 1 1 1 1 1 1 1 1 
1 1 1 1 1 1 1 1 1 
1 1 1 1 1 1 1 1 1 
1 1 1 1 1 1 1 1 1 
1 1 1 1 1 1 1 1 1 
1 1 1 1 1 1 1 1 1 
1 1 1 1 1 1 1 1 1 
1 1 1 1 1 1 1 1 1 
1 1 1 1 1 1 1 1 1 
1 1 1 1 1 1 1 1 1 
1 1 1 1 1 1 1 1 1 
1 1 1 1 1 1 1 1 1 
1 1 1 1 1 1 1 1 1 
1 1 1 1 1 1 1 1 1 
1 1 1 1 1 1 1 1 1 
1 1 1 1 1 1 1 1 1 
1 1 1 1 1 1 1 1 1 
1 1 1 1 1 1 1 1 1 
1 1 1 1 1 1 1 1 1 
1 1 1 1 1 1 1 1 1 
1 1 1 1 1 1 1 1 1 
1 1 1 1 1 1 1 1 1 
1 1 1 1 1 1 1 1 1 
1 1 1 1 1 1 1 1 1 
1 1 1 1 1 1 1 1 1 
1 1 1 1 1 1 1 1 1 
1 1 1 1 1 1 1 1 1 
1 1 1 1 1 1 1 1 1 
1 1 1 1 1 1 1 1 1 
1 1 1 1 1 1 1 1 1 
1 1 1 1 1 1 1 1 1 
1 1 1 1 1 1 1 1 1 
1 1 1 1 1 1 1 1 1 
1 1 1 1 1 1 1 1 1 
1 1 1 1 1 1 1 1 1 
1 1 1 1 1 1 1 1 1 
1 1 1 1 1 1 1 1 1 
1 1 1 1 1 1 1 1 1 
1 1 1 1 1 1 1 1 1 
1 1 1 1 1 1 1 1 1 
1 1 1 1 1 1 1 1 1 
1 1 1 1 1 1 1 1 1 
1 1 1 1 1 1 1 1 1 
1 1 1 1 1 1 1 1 1 
1 1 1 1 1 1 1 1 1 
1 1 1 1 1 1 1 1 1 
1 1 1 1 1 1 1 1 1 
1 1 1 1 1 1 1 1 1 
1 1 1 1 1 1 1 1 1 
1 1 1 1 1 1 1 1 1 
1 1 1 1 1 1 1 1 1 
1 1 1 1 1 1 1 1 1 
1 1 1 1 1 1 1 1 1 
1 1 1 1 1 1 1 1 1 
1 1 1 1 1 1 1 1 1 
1 1 1 1 1 1 1 1 1 
1 1 1 1 1 1 1 1 1 
1 1 1 1 1 1 1 1 1 
1 1 1 1 1 1 1 1 1 
1 1 1 1 1 1 1 1 1 
1 1 1 1 1 1 1 1 1 
1 1 1 1 1 1 1 1 1 
1 1 1 1 1 1 1 1 1 
1 1 1 1 1 1 1 1 1 
1 1 1 1 1 1 1 1 1 
1 1 1 1 1 1 1 1 1 
1 1 1 1 1 1 1 1 1 
1 1 1 1 1 1 1 1 1 
1 1 1 1 1 1 1 1 1 
1 1 1 1 1 1 1 1 1 
1 1 1 1 1 1 1 1 1 
1 1 1 1 1 1 1 1 1 
1 1 1 1 1 1 1 1 1 
1 1 1 1 1 1 1 1 1 
1 1 1 1 1 1 1 1 1 
1 1 1 1 1 1 1 1 1 
1 1 1 1 1 1 1 1 1 
1 1 1 1 1 1 1 1 1 
1 1 1 1 
i 3 733 int
0 0 0 0 0 0 0 0 0 
0 0 0 0 0 0 0 0 0 
0 0 0 0 0 0 0 0 0 
0 0 0 0 0 0 0 0 0 
0 0 0 0 0 0 0 0 0 
0 0 0 0 0 0 0 0 0 
0 0 0 0 0 0 0 0 0 
0 0 0 0 0 0 0 0 0 
0 0 0 0 0 0 0 0 0 
0 0 0 0 0 0 0 0 0 
0 0 0 0 0 0 0 0 0 
0 0 0 0 0 0 0 0 0 
0 0 0 0 0 0 0 0 0 
0 0 0 0 0 0 0 0 0 
0 0 0 0 0 0 0 0 0 
0 0 0 0 0 0 0 0 0 
0 0 0 0 0 0 0 0 0 
0 0 0 0 0 0 0 0 0 
0 0 0 0 0 0 0 0 0 
0 0 0 0 0 0 0 0 0 
0 0 0 0 0 0 0 0 0 
0 0 0 0 0 0 0 0 0 
0 0 0 0 0 0 0 0 0 
0 0 0 0 0 0 0 0 0 
0 0 0 0 0 0 0 0 0 
0 0 0 0 0 0 0 0 0 
0 0 0 0 0 0 0 0 0 
0 0 0 0 0 0 0 0 0 
0 0 0 0 0 0 0 0 0 
0 0 0 0 0 0 0 0 0 
0 0 0 0 0 0 0 0 0 
0 0 0 0 0 0 0 0 0 
0 0 0 0 0 0 0 0 0 
0 0 0 0 0 0 0 0 0 
0 0 0 0 0 0 0 0 0 
0 0 0 0 0 0 0 0 0 
0 0 0 0 0 0 0 0 0 
0 0 0 0 0 0 0 0 0 
0 0 0 0 0 0 0 0 0 
0 0 0 0 0 0 0 0 0 
0 0 0 0 0 0 0 0 0 
0 0 0 0 0 0 0 0 0 
0 0 0 0 0 0 0 0 0 
0 0 0 0 0 0 0 0 0 
0 0 0 0 0 0 0 0 0 
0 0 0 0 0 0 0 0 0 
0 0 0 0 0 0 0 0 0 
0 0 0 0 0 0 0 0 0 
0 0 0 0 0 0 0 0 0 
0 0 0 0 0 0 0 0 0 
0 0 0 0 0 0 0 0 0 
0 0 0 0 0 0 0 0 0 
0 0 0 0 0 0 0 0 0 
0 0 0 0 0 0 0 0 0 
0 0 0 0 0 0 0 0 0 
0 0 0 0 0 0 0 0 0 
0 0 0 0 0 0 0 0 0 
0 0 0 0 0 0 0 0 0 
0 0 0 0 0 0 0 0 0 
0 0 0 0 0 0 0 0 0 
0 0 0 0 0 0 0 0 0 
0 0 0 0 0 0 0 0 0 
0 0 0 0 0 0 0 0 0 
0 0 0 0 0 0 0 0 0 
0 0 0 0 0 0 0 0 0 
0 0 0 0 0 0 0 0 0 
0 0 0 0 0 0 0 0 0 
0 0 0 0 0 0 0 0 0 
0 0 0 0 0 0 0 0 0 
0 0 0 0 0 0 0 0 0 
0 0 0 0 0 0 0 0 0 
0 0 0 0 0 0 0 0 0 
0 0 0 0 0 0 0 0 0 
0 0 0 0 0 0 0 0 0 
0 0 0 0 0 0 0 0 0 
0 0 0 0 0 0 0 0 0 
0 0 0 0 0 0 0 0 0 
0 0 0 0 0 0 0 0 0 
0 0 0 0 0 0 0 0 0 
0 0 0 0 0 0 0 0 0 
0 0 0 0 0 0 0 0 0 
0 0 0 0 0 0 0 0 0 
0 0 0 0 0 0 0 0 0 
0 0 0 0 0 0 0 0 0 
0 0 0 0 0 0 0 0 0 
0 0 0 0 0 0 0 0 0 
0 0 0 0 0 0 0 0 0 
0 0 0 0 0 0 0 0 0 
0 0 0 0 0 0 0 0 0 
0 0 0 0 0 0 0 0 0 
0 0 0 0 0 0 0 0 0 
0 0 0 0 0 0 0 0 0 
0 0 0 0 0 0 0 0 0 
0 0 0 0 0 0 0 0 0 
0 0 0 0 0 0 0 0 0 
0 0 0 0 0 0 0 0 0 
0 0 0 0 0 0 0 0 0 
0 0 0 0 0 0 0 0 0 
0 0 0 0 0 0 0 0 0 
0 0 0 0 0 0 0 0 0 
0 0 0 0 0 0 0 0 0 
0 0 0 0 0 0 0 0 0 
0 0 0 0 0 0 0 0 0 
0 0 0 0 0 0 0 0 0 
0 0 0 0 0 0 0 0 0 
0 0 0 0 0 0 0 0 0 
0 0 0 0 0 0 0 0 0 
0 0 0 0 0 0 0 0 0 
0 0 0 0 0 0 0 0 0 
0 0 0 0 0 0 0 0 0 
0 0 0 0 0 0 0 0 0 
0 0 0 0 0 0 0 0 0 
0 0 0 0 0 0 0 0 0 
0 0 0 0 0 0 0 0 0 
0 0 0 0 0 0 0 0 0 
0 0 0 0 0 0 0 0 0 
0 0 0 0 0 0 0 0 0 
0 0 0 0 0 0 0 0 0 
0 0 0 0 0 0 0 0 0 
0 0 0 0 0 0 0 0 0 
0 0 0 0 0 0 0 0 0 
0 0 0 0 0 0 0 0 0 
0 0 0 0 0 0 0 0 0 
0 0 0 0 0 0 0 0 0 
0 0 0 0 0 0 0 0 0 
0 0 0 0 0 0 0 0 0 
0 0 0 0 0 0 0 0 0 
0 0 0 0 0 0 0 0 0 
0 0 0 0 0 0 0 0 0 
0 0 0 0 0 0 0 0 0 
0 0 0 0 0 0 0 0 0 
0 0 0 0 0 0 0 0 0 
0 0 0 0 0 0 0 0 0 
0 0 0 0 0 0 0 0 0 
0 0 0 0 0 0 0 0 0 
0 0 0 0 0 0 0 0 0 
0 0 0 0 0 0 0 0 0 
0 0 0 0 0 0 0 0 0 
0 0 0 0 0 0 0 0 0 
0 0 0 0 0 0 0 0 0 
0 0 0 0 0 0 0 0 0 
0 0 0 0 0 0 0 0 0 
0 0 0 0 0 0 0 0 0 
0 0 0 0 0 0 0 0 0 
0 0 0 0 0 0 0 0 0 
0 0 0 0 0 0 0 0 0 
0 0 0 0 0 0 0 0 0 
0 0 0 0 0 0 0 0 0 
0 0 0 0 0 0 0 0 0 
0 0 0 0 0 0 0 0 0 
0 0 0 0 0 0 0 0 0 
0 0 0 0 0 0 0 0 0 
0 0 0 0 0 0 0 0 0 
0 0 0 0 0 0 0 0 0 
0 0 0 0 0 0 0 0 0 
0 0 0 0 0 0 0 0 0 
0 0 0 0 0 0 0 0 0 
0 0 0 0 0 0 0 0 0 
0 0 0 0 0 0 0 0 0 
0 0 0 0 0 0 0 0 0 
0 0 0 0 0 0 0 0 0 
0 0 0 0 0 0 0 0 0 
0 0 0 0 0 0 0 0 0 
0 0 0 0 0 0 0 0 0 
0 0 0 0 0 0 0 0 0 
0 0 0 0 0 0 0 0 0 
0 0 0 0 0 0 0 0 0 
0 0 0 0 0 0 0 0 0 
0 0 0 0 0 0 0 0 0 
0 0 0 0 0 0 0 0 0 
0 0 0 0 0 0 0 0 0 
0 0 0 0 0 0 0 0 0 
0 0 0 0 0 0 0 0 0 
0 0 0 0 0 0 0 0 0 
0 0 0 0 0 0 0 0 0 
0 0 0 0 0 0 0 0 0 
0 0 0 0 0 0 0 0 0 
0 0 0 0 0 0 0 0 0 
0 0 0 0 0 0 0 0 0 
0 0 0 0 0 0 0 0 0 
0 0 0 0 0 0 0 0 0 
0 0 0 0 0 0 0 0 0 
0 0 0 0 0 0 0 0 0 
0 0 0 0 0 0 0 0 0 
0 0 0 0 0 0 0 0 0 
0 0 0 0 0 0 0 0 0 
0 0 0 0 0 0 0 0 0 
0 0 0 0 0 0 0 0 0 
0 0 0 0 0 0 0 0 0 
0 0 0 0 0 0 0 0 0 
0 0 0 0 0 0 0 0 0 
0 0 0 0 0 0 0 0 0 
0 0 0 0 0 0 0 0 0 
0 0 0 0 0 0 0 0 0 
0 0 0 0 0 0 0 0 0 
0 0 0 0 0 0 0 0 0 
0 0 0 0 0 0 0 0 0 
0 0 0 0 0 0 0 0 0 
0 0 0 0 0 0 0 0 0 
0 0 0 0 0 0 0 0 0 
0 0 0 0 0 0 0 0 0 
0 0 0 0 0 0 0 0 0 
0 0 0 0 0 0 0 0 0 
0 0 0 0 0 0 0 0 0 
0 0 0 0 0 0 0 0 0 
0 0 0 0 0 0 0 0 0 
0 0 0 0 0 0 0 0 0 
0 0 0 0 0 0 0 0 0 
0 0 0 0 0 0 0 0 0 
0 0 0 0 0 0 0 0 0 
0 0 0 0 0 0 0 0 0 
0 0 0 0 0 0 0 0 0 
0 0 0 0 0 0 0 0 0 
0 0 0 0 0 0 0 0 0 
0 0 0 0 0 0 0 0 0 
0 0 0 0 0 0 0 0 0 
0 0 0 0 0 0 0 0 0 
0 0 0 0 0 0 0 0 0 
0 0 0 0 0 0 0 0 0 
0 0 0 0 0 0 0 0 0 
0 0 0 0 0 0 0 0 0 
0 0 0 0 0 0 0 0 0 
0 0 0 0 0 0 0 0 0 
0 0 0 0 0 0 0 0 0 
0 0 0 0 0 0 0 0 0 
0 0 0 0 0 0 0 0 0 
0 0 0 0 0 0 0 0 0 
0 0 0 0 0 0 0 0 0 
0 0 0 0 0 0 0 0 0 
0 0 0 0 0 0 0 0 0 
0 0 0 0 0 0 0 0 0 
0 0 0 0 0 0 0 0 0 
0 0 0 0 0 0 0 0 0 
0 0 0 0 0 0 0 0 0 
0 0 0 0 0 0 0 0 0 
0 0 0 0 0 0 0 0 0 
0 0 0 0 0 0 0 0 0 
0 0 0 0 0 0 0 0 0 
0 0 0 0 0 0 0 0 0 
0 0 0 0 0 0 0 0 0 
0 0 0 0 0 0 0 0 0 
0 0 0 0 0 0 0 0 0 
0 0 0 0 0 0 0 0 0 
0 0 0 0 0 0 0 0 0 
0 0 0 
v 3 733 double
-0.413858 1.46324 -3.26691e-06 0 0 3.33752e-11 0 0 -0.107395 
-1.15014 -2.43952 1.13765e-11 2.50676 0.363495 -1.59764 -1.95136 1.36222 -0.000257607 
-0.000827812 -2.29365 -1.76023 0.625317 -2.85021 1.39291e-05 0.538317 -0.31307 -0.0564401 
-0.80979 -2.3747 -0.333476 -0.024887 -0.161245 -0.102753 0.816544 0.00665222 -1.8051 
-1.26084 2.89859 -0.63334 -0.136468 0.250645 -4.48355 -1.01019 0.246743 -0.0548434 
-1.98219 0.0663679 8.35386e-12 2.29396 0.0343324 0.0661488 0.831809 0.64449 0.615406 
-0.144144 -3.09426 3.78987e-05 -1.69583 -0.468555 -0.00776383 -0.780602 -1.50588 0.0988367 
-2.31434 -1.23727 0.0461989 -0.222262 0.556766 -0.00170315 -1.40156 -0.940662 0.268739 
-0.0195342 0.886737 0.0789649 1.04533 0.575106 -0.00971697 -0.0744743 -2.22886 -0.0280687 
1.41858 -0.113376 -0.0214914 -0.109086 -2.16189 -3.79125e-09 0.81075 -1.89144 0.0163052 
0.0792422 -0.0997357 -0.107367 1.48676 -3.25136 -0.817769 0.550763 -0.7394 3.09785e-12 
-1.79701 1.27497 -0.00183318 1.87638 -1.36308 -0.0890859 1.62575 -0.372132 -0.199991 
-0.0875031 2.67204 -0.0486342 0.608399 -1.55573 0.0435509 -0.00832442 -0.00381389 -2.78414e-08 
0.561577 -0.530217 3.81577e-05 0.107619 0.0493064 -0.919466 0.468385 -3.94036 -1.38676e-11 
-1.01465 -1.38231 0.332908 0.143751 -7.16635 -2.70055 0.369262 0.911538 -0.975214 
-1.38072 -2.25223 -0.263352 0 0 -2.21875 0.163958 -7.16486 -0.000528038 
0.0299446 -3.71445 -1.75631e-05 0 0 -0.0409322 -0.607545 -1.61601 0.72627 
0.245809 -3.06928 4.04354e-12 -3.08034 -0.0736834 -0.593122 4.27651 -5.18546 -1.16898 
-0.117511 -2.49597 0.0984724 -1.08787 -0.932736 -0.00112949 1.90556 2.4405 4.96015e-12 
3.88316 -0.603081 0.123927 -0.999108 -2.90328 -0.356363 -5.28227 -4.50012 -1.38557 
-0.554926 -1.67552 0.0495032 13.4897 16.3506 1.02977 0 0 -0.0855677 
0.023251 -3.56428 0.0905195 -1.13372 -3.3009 -0.0987041 -0.101323 -3.33348 -0.000275324 
4.4185 -2.75312 -0.200518 -0.0416051 -3.35091 -0.0111608 -0.138889 -3.88872 0.26395 
-0.981675 -3.17583 0.0263914 -0.0835164 -3.68978 0.000934098 -2.2374 -3.08503 -0.00272027 
-0.150583 -4.15387 0.0687302 2.17454 -4.37039 2.9709e-11 2.45459 -3.88192 -0.0124556 
-0.89844 -5.09052 -0.000830215 -0.425258 -5.46535 -0.0160618 0.281995 -3.41234 -2.89546e-11 
0.0466547 -3.65188 -3.35377e-11 -1.2943 -2.10859 -0.0411005 -0.0116064 -3.89337 0.382787 
-0.101347 -3.10839 -2.03937 0.788439 -2.97615 -2.37277e-12 4.35527 5.58278 0.929325 
0.402982 0.146185 -0.510731 -0.0540728 -2.64117 -1.90899 -0.270553 -3.13913 0.331216 
4.66996 -5.89116 -1.45615e-12 1.71163 -0.768615 0.00140749 1.99072 -5.38013 -1.65339 
2.76612 -1.65245 -2.42339 3.08959 -2.56621 -1.06223e-11 0 0 -0.113281 
0.826788 -6.83272 0.0694052 -0.669959 1.28127 3.1542e-11 4.24198 -7.18218 -5.43762 
-0.163792 -1.81625 3.12692e-12 2.87022 -1.28519 -2.23992 1.10071 -2.0208 0.282128 
-2.13274 -9.86087 -1.33721e-11 0 0 -0.170424 0.57036 -3.46644 -4.08348 
0 0 -0.045592 -5.16338 -2.51163 1.29369e-12 0 0 -1.11366 
-1.83873 -1.85442 0.330296 -1.05926 1.65952 0.138129 0 0 -7.51838e-07 
0.159216 0.270746 0.019379 1.07833 -3.27192 -3.67494e-07 -1.13711 0.865422 0.221468 
1.43227 -1.08334 0.14891 0 0 -0.543695 0.0127848 0.318885 3.77727e-12 
-0.0854359 -1.33312 2.05426e-11 -0.269165 -1.52624 -0.276565 0 0 -0.989069 
0 0 -0.674903 -4.20865 -3.41181 0.607813 0 0 -0.48042 
-1.06025 -3.05797 -0.578803 -0.844268 -2.28491 2.97087e-11 0 0 -0.027934 
2.60173 10.7266 2.59183 0.322344 -1.18221 0.359417 -0.948227 0.159215 0.101831 
0.0987862 -2.25701 0.0700239 -1.46892 0.0942354 2.33912e-11 0.520195 -1.57052 -1.93295 
-5.73596 1.79689 -1.58023 -3.35534 4.86817 0.0233876 -4.11269 2.14476 0.747796 
-2.05148 -0.673065 -7.13915e-12 -2.84357 0.858853 -0.0871311 -0.822768 0.638073 -0.00894207 
-2.8453 -0.344012 0.0326011 -1.21765 -1.66493 -1.15663 -1.77211 4.14763 0.0285246 
-2.24942 0.218325 -0.126767 0.589884 5.31013 2.74433 0.0560714 -0.289564 -0.353629 
0.585006 4.23394 -2.74838 -2.04983 -1.97671 1.04598e-11 -1.50708 -2.34833 0.00482437 
-0.686288 -0.918749 2.08263 -0.896698 -3.24898 -1.33721e-11 -2.7618 0.691426 -4.82402 
0 0 -0.167236 -2.79961 -2.07179 -0.593422 0.697438 8.04195 -6.19167 
-1.68405 1.40233 3.33752e-11 0.0712153 1.45681 0.108386 -0.696237 -0.12944 1.9514e-11 
0.574106 0.117422 0.0276187 -0.11559 4.18826 -3.76413e-08 0 0 2.78755e-11 
-3.18326 -0.765936 0.0340096 -1.48878 1.70854 2.53369e-10 0 0 -0.250866 
0.263063 0.256894 -6.33399 -0.85341 0.597357 1.29369e-12 0 0 -2.71214e-11 
0.6705 0.826401 0.00648485 -0.606003 -0.470204 -1.10296 -0.2417 0.938774 -0.54271 
0.0154736 2.20424 -0.187809 0 0 -0.422051 1.24197 2.20494 1.01648 
0 0 -2.8038e-11 0 0 -3.07884e-11 0 0 1.59595e-11 
-0.128682 7.88133 -14.2687 -0.545777 3.38071 -0.186922 1.56514 3.42659 0.0240579 
0.65679 5.78819 0.0362507 -0.119932 4.66106 0.0155836 0.0115838 6.0536 0.256319 
-0.530129 4.3758 0.259548 0 0 -0.0943967 0.200638 1.62544 0.125553 
-2.7588 1.40466 -3.28938e-12 0 0 -4.206e-12 -0.587272 1.14153 -0.065484 
1.50684 1.62211 -1.26645 0.815345 1.16938 -0.00363901 0.330101 -0.0211171 0.612355 
-0.164253 5.71408 -0.0266597 3.17098 2.66051 0.275657 -0.887476 5.32731 0.272391 
0.620354 4.94213 -0.00149211 -0.386155 1.12852 -3.3447e-07 -1.9538 1.8325 -0.406198 
0.366321 1.39428 2.97486 1.28077 0.349009 0.0420023 -2.33172 -0.896988 -4.206e-12 
1.64867 1.76798 -1.52999 1.06904 -2.15072 -3.59712 0 0 -0.148106 
-0.668868 6.35694 6.43026 -1.22893 6.12963 -1.10948 -2.10883 1.88963 0.387935 
0.640074 4.27363 0.410951 0.00704935 4.50126 -1.01079e-05 0.992886 2.79098 0.0293421 
0.936387 1.8985 0.237792 0.859569 4.17401 0.000534373 0.169998 1.61683 0.0198288 
2.6274 3.4418 -0.0712941 -1.56117 -0.168601 0.147012 -4.71618 1.62253 0.121122 
0.0291793 0.331978 -1.23453 -1.07833 2.23028 -4.45428 0 0 -0.138542 
3.43659 0.743736 1.16793 1.17537 -2.49466 -2.52881e-11 -0.280305 0.357373 -1.12601e-11 
0.464071 1.69444 0.000886038 -0.226277 -4.21324 0.479863 0 0 -0.330818 
0 0 -0.189063 -0.115947 5.00032 -0.400858 0.873685 1.51564 0.000487117 
-0.106075 1.69106 -0.54704 1.89407 1.82965 -0.0107475 0.00536855 2.48388 -0.0474516 
-0.234697 0.539484 -0.166948 -1.99838 2.5614 -0.79963 2.0108 -0.440516 -3.53301 
-0.45941 1.15517 -0.0140368 -0.462397 3.44857 0.0438057 1.77273 1.24378 -1.63804e-07 
0.627798 3.19048 1.48002 4.21683 1.04258 1.54003 3.13919 7.62937 -2.98355 
2.66999 7.45027 -0.441829 3.4693 0.793349 -5.91309 0.796917 -0.629534 -0.121819 
-0.48422 -1.51224 -3.65897e-05 0.066464 -1.33489 -1.67109 -1.04526 -0.423876 -0.845616 
-0.940589 0.351898 -0.38266 0.137861 -1.53264 -0.0156892 -0.624889 -3.84658 1.1772 
0 0 -0.144673 0 0 -0.134372 0 0 -0.106169 
-0.734816 1.85016 0.000696054 0.669323 1.93566 0.221749 -0.338393 1.86836 1.87094e-11 
-0.485329 1.46944 0.00670961 -0.71602 0.440025 -2.40406e-06 -2.31375 4.00418 -5.48028 
-0.517411 2.51816 -1.32954e-09 -1.60927 1.7181 -1.481 1.97477 2.59525 2.21509e-08 
0.186128 1.595 0.173671 -0.521421 2.80461 -0.564205 -3.56461 6.79176 -0.477746 
-0.749585 4.77757 0.888431 27.5917 -18.1024 8.29561 -1.49794 0.609672 -2.3132e-09 
0.831211 -2.33372 0.191258 1.93192 2.33254 0.00365496 0.0954377 -2.28331 0.42989 
-1.18806 -1.64138 -1.37291 0 0 -0.476496 37.8281 70.3145 27.1696 
-0.959013 -0.0436435 -0.617552 2.04737 -0.395898 -0.0519792 1.83037 1.98191 -0.402645 
-0.00206515 1.79476 0.0877643 30.9035 9.22688 15.0612 -1.29814 -0.847382 0.0071842 
4.03222 8.65281 1.23036 -6.16762 1.69776 -0.278866 3.30615 1.6093 -1.9103 
-4.91477 6.31806 0.188538 0.607519 1.37737 -1.15389e-11 0.966347 2.01593 -0.0757254 
0.174148 2.12454 0.212342 0.168504 3.25282 -1.26089e-11 -0.0443907 2.18601 0.00643332 
-0.0756584 2.89685 -0.0116049 -0.936598 1.8676 -2.52881e-11 0.183925 2.57239 -0.055139 
0.083145 0.567624 1.87094e-11 -0.411309 2.05619 0.206117 -0.150868 2.19657 -0.744828 
-1.30245 0.160781 -0.360146 1.39962 2.73011 -1.55639 -1.06934 6.21831 -2.41113 
1.88739 0.473478 1.43896e-10 0.655049 -0.726581 3.55879e-12 0.0452185 0.0745354 -0.952541 
0.293509 0.225402 -0.282363 0.383826 0.00295994 -1.11744 0.327571 1.68186 0.0603182 
-2.36825 -0.372233 0.102268 3.33142 0.677801 2.01102 0.629784 0.207477 -0.506505 
0 0 -0.789435 0.0228473 -0.0216496 -1.86074 0.503295 2.9002 -3.30606 
0 0 -0.0428942 1.21154 2.65915 0.684614 7.16294 3.91756 0.260009 
-0.671005 1.9488 -1.97884e-11 -0.164096 0.00245814 -4.206e-12 -0.303026 0.737449 -0.0682042 
0.194409 -0.208201 -1.65765 0.852073 -0.24308 -0.0119054 0.0853062 2.5823 0.86031 
-1.89924 -0.115267 1.68683 3.02093 1.91015 0.23398 -0.404484 -0.507641 0.10328 
-0.205982 -0.0709609 0.101996 -0.412836 3.7443 -6.98208e-07 1.07411 1.1411 -2.26215 
3.48671 -0.550004 -0.00455534 -0.270118 0.739648 -1.17474 4.84203 1.17309 -3.14429 
0.44574 -0.0420931 0.206227 0.0158821 1.69891 -6.95584e-12 0.874861 3.64007 0.0385718 
0.374631 3.912 -2.60907e-05 -0.349552 -0.488026 0.323955 0 0 0.0340052 
1.7569 0.400892 -3.84884 0 0 -0.315612 -0.459478 -0.730441 -2.63168 
2.18681 1.9789 -1.7573 -3.23507 3.57295 -1.35786 -2.01806 0.341855 1.33239 
0.826316 0.0470701 -2.12836 1.28557 -0.10411 -1.79839 -1.81138 2.60227 -1.19064 
1.3009 0.687395 -2.18236 0.942968 0.0722251 -0.688689 0 0 -0.776927 
0.206554 -2.43084 -1.54347 0.0676159 0.502783 0.101711 0.690352 -8.55115 -14.2581 
1.01994 -4.96705 -1.90305 1.36182 -20.6306 -0.982798 0.570979 0.569038 0.44966 
-2.72214 -1.11311 -0.279684 0.432973 -9.05348 -0.748433 2.14448 4.85825 -6.80917 
-0.606068 -3.37578 -0.748896 -1.26459 -1.68264 -0.939945 0.574716 -0.111239 -0.625954 
1.66251 -2.2544 -0.00798541 2.88608 -1.17538 -0.0389231 8.8832 -4.14796 -6.59623 
0.394191 0.793997 0.806845 0 0 -0.614817 -0.32204 -1.30367 2.78631 
-9.62432 -0.875798 -5.96827 0 0 -0.256262 10.3947 1.07656 -0.516905 
0 0 -0.149087 4.55436 -13.3502 -1.86184 -0.223443 -5.54179 8.83267 
0 0 -0.0384797 -3.33851 -20.4348 1.28684 1.24028 -0.240804 -0.980759 
0.395548 0.190841 0.170086 0.449647 -0.143423 -1.21124 -0.799347 -1.71929 -0.362165 
-0.038005 1.57977 -1.59256 -0.0454288 -0.573897 -1.35929 -4.34179 -0.273958 -0.283264 
-1.13384 0.132401 -2.18251 -1.41147 -2.89869 -4.19616 -1.87765 -0.208094 -0.412862 
0.158988 -0.875392 -4.05572 0.525414 -3.15148 0.25133 0.756517 -4.56973 1.25713 
-1.77684 -1.01975 0.122209 11.5415 -14.387 1.8999 0 0 -0.0291602 
-3.05892 -3.91973 2.8164 -3.58623 1.79385 1.18211 0 0 -1.59018 
0 0 -1.41262 -0.115964 -0.422689 0.650904 2.41896 -1.55065 -1.82117 
-1.10795 -2.70847 -6.24042 -7.69947 -10.0672 -0.0587736 -11.9478 -7.58737 -0.261861 
-1.5772 -2.81637 1.21837 -2.22956 -4.07965 -1.15308 -6.63047 -1.18392 -0.789356 
-4.11321 1.86064 3.55153 1.78143 -0.538687 1.28875 0 0 -0.848786 
-1.97363 -4.97966 -1.13887 0.503217 -1.95341 0.458567 0 0 -0.305066 
0 0 -0.255771 0 0 -0.219965 0 0 -0.189799 
2.69279 -9.05433 25.9022 8.83271 -13.7188 -1.54007 7.47894 -12.8733 -1.38449 