# vtk DataFile Version 4.0
Generated by LIGGGHTS
ASCII
DATASET POLYDATA
POINTS 484 float
0.00712946 0.000643627 0.020815 0.00413639 0.00336005 0.0219999 0.00312169 0.0070826 0.0206898 
0.0159849 0.00453479 0.0205848 0.0143098 0.00432738 0.021449 0.0155377 0.00092973 0.02075 
0.0105216 0.00333386 0.0205 0.00927708 0.00514882 0.0205501 0.0106899 0.00443364 0.0219054 
0.0104044 0.00696734 0.0221659 0.0120993 0.00201956 0.0209754 0.017039 0.000815775 0.02075 
0.0164842 0.00295716 0.0212637 0.0224536 0.00691144 0.0205068 0.0203485 0.00136462 0.0208796 
0.0209184 0.00438663 0.021197 0.0170295 0.00614338 0.0215527 0.0189948 0.00309985 0.021327 
0.0226755 0.00375242 0.021423 0.00589057 0.00939856 0.0205 0.00757706 0.0117474 0.021089 
0.0024935 0.0140908 0.0210169 0.00275042 0.0118698 0.0213774 0.0043001 0.0120735 0.0212939 
0.00538796 0.0112943 0.0220533 0.00255053 0.00903209 0.0210776 0.0155223 0.00827035 0.0222911 
0.00959504 0.00958678 0.0206787 0.00976901 0.0123414 0.0209958 0.0122579 0.01022 0.020503 
0.0108329 0.0128476 0.0216216 0.0145553 0.012217 0.0207656 0.0122056 0.0114608 0.0211429 
0.0172104 0.00823805 0.0207502 0.021944 0.0139422 0.02075 0.0194715 0.00809313 0.0207783 
0.0174658 0.0123741 0.0213868 0.0206288 0.0117397 0.0214999 0.0215567 0.0135267 0.0220128 
0.023052 0.00987233 0.0213873 0.0173227 0.0109677 0.0214687 0.0188811 0.00948236 0.0222664 
0.00166855 0.0179293 0.0216548 0.00495228 0.0191212 0.0207499 0.00598585 0.0183881 0.0207589 
0.00622928 0.0194929 0.0206318 0.00383423 0.0201211 0.0207495 0.00591984 0.0205613 0.0207537 
0.00119456 0.0153276 0.0216148 0.00148986 0.0203309 0.0205736 0.0162573 0.0184191 0.021012 
0.0105771 0.0167995 0.0223069 0.0127894 0.0171047 0.0220548 0.00979686 0.0181205 0.0213678 
0.0085711 0.0210991 0.0219998 0.0156248 0.0200604 0.0204964 0.0140727 0.0198054 0.0221004 
0.016359 0.0176223 0.0226132 0.0234892 0.0167508 0.0205234 0.0179528 0.0145878 0.0205118 
0.0196892 0.014694 0.0205 0.020304 0.0166353 0.0219998 0.0230812 0.0181203 0.0209147 
0.0222168 0.0206678 0.0222891 0.000859517 0.0215997 0.0204986 0.00248018 0.0219711 0.022364 
0.00149356 0.024878 0.0211691 0.00490303 0.0244283 0.0214695 0.00707626 0.0281945 0.0211792 
0.0077165 0.0260093 0.0205002 0.0149776 0.0211034 0.0205001 0.0155334 0.0228052 0.0207559 
0.0103399 0.0231652 0.0206176 0.0145145 0.0249008 0.021332 0.0110191 0.025654 0.0209001 
0.00965262 0.0280124 0.0214196 0.012997 0.0279828 0.0222588 0.0228633 0.0243833 0.0207855 
0.0185612 0.0264717 0.0222601 0.0196643 0.0244975 0.0210688 0.0234382 0.0232425 0.020527 
0.0231992 0.0230532 0.0219914 0.0218663 0.0269928 0.0212688 0.000510449 0.0285093 0.020513 
0.00176014 0.0284232 0.0207602 0.00175158 0.0307197 0.0217752 0.00458087 0.0333183 0.0220095 
0.00356334 0.0293276 0.0219864 0.0102378 0.0322225 0.02075 0.0144996 0.0314585 0.0212538 
0.0150458 0.0346869 0.0205277 0.00930101 0.0325673 0.0222276 0.0106362 0.0345062 0.0210896 
0.0139091 0.0353134 0.0206909 0.0124223 0.0351707 0.0223182 0.0183877 0.0295344 0.020578 
0.0167639 0.0291512 0.0208376 0.0166341 0.0321236 0.0209994 0.0161921 0.0305329 0.0212302 
0.0183286 0.0350412 0.0207621 0.0166465 0.0335593 0.0205029 0.018849 0.0324066 0.0212506 
0.0202443 0.0350205 0.0207823 0.0220745 0.0289325 0.0205366 0.00673508 0.0407756 0.0205 
0.00239313 0.0370529 0.0222995 0.00128336 0.0407139 0.0213413 0.00541134 0.0400152 0.021478 
0.000911541 0.0360678 0.0222827 0.0106405 0.0362982 0.0206179 0.0108662 0.0395131 0.0207677 
0.0147288 0.0377974 0.0219171 0.0084001 0.0402154 0.022174 0.0155157 0.0401074 0.0206249 
0.0142848 0.0388678 0.0208409 0.0183003 0.0406464 0.0208622 0.0164767 0.0388831 0.0213132 
0.0225435 0.0423733 0.0209999 0.0189825 0.0361133 0.0210246 0.0177348 0.0392258 0.0207851 
0.0204947 0.037832 0.0221728 0.00196883 0.0443512 0.0206974 0.00680236 0.049529 0.0207532 
0.00237629 0.0472336 0.0205 0.00279257 0.0476407 0.0218203 0.00402726 0.0468588 0.0207936 
0.00766565 0.0471762 0.0220009 0.0109563 0.0477789 0.0205 0.0109834 0.0454169 0.0207749 
0.0227502 0.0465939 0.0207526 0.0216314 0.0447984 0.0215345 0.0232481 0.0479823 0.0213119 
0.0170478 0.0481961 0.0212653 0.0222374 0.0494875 0.0217611 0.0170131 0.0451425 0.0245635 
0.0043053 0.0505543 0.0209999 0.00154313 0.0501239 0.0218541 0.00299544 0.0529035 0.0219236 
0.00202849 0.0547287 0.0207713 0.00125896 0.0500992 0.0205 0.000678804 0.0543638 0.0220182 
0.00171534 0.0529698 0.0218468 0.0152206 0.0525375 0.020512 0.00911569 0.0498914 0.0205769 
0.0144493 0.0535775 0.0212666 0.0152817 0.0549745 0.0207508 0.0108929 0.0515725 0.0226046 
0.0125233 0.0544231 0.0214999 0.0165729 0.0535226 0.0214189 0.0216099 0.0524368 0.0205172 
0.0187866 0.0547176 0.0212499 0.0227287 0.0538973 0.0212604 0.0229538 0.0564281 0.02122 
0.0234992 0.0525229 0.0204999 0.0231429 0.051285 0.0216693 0.00319015 0.0578898 0.0215286 
0.0073886 0.0600909 0.0207563 0.00105295 0.060039 0.0211107 0.00645133 0.0607301 0.0207952 
0.000836214 0.0617928 0.020888 0.00312657 0.0635126 0.0217544 0.000894492 0.0614648 0.0221079 
0.00871341 0.0575273 0.0214233 0.011018 0.0619206 0.02075 0.013287 0.0590343 0.0221338 
0.0235009 0.0581372 0.0213133 0.0223435 0.0578703 0.0207279 0.0173638 0.057985 0.021354 
0.0184292 0.061468 0.0223804 0.02232 0.0582689 0.0220061 0.0223663 0.061123 0.0219495 
0.0209214 0.059029 0.0223486 0.00091673 0.0697724 0.0205 0.000934177 0.0646729 0.020864 
0.00631844 0.0698995 0.021499 0.00279135 0.0695317 0.0216284 0.00870057 0.0698959 0.0209061 
0.0154564 0.0675498 0.0205098 0.0118605 0.0647735 0.0212308 0.0100642 0.0663902 0.0219252 
0.00836198 0.0643941 0.0215005 0.0144292 0.0692047 0.0218023 0.0160812 0.0660677 0.0208274 
0.00909745 0.0679073 0.0216829 0.0217113 0.0649797 0.0207513 0.0193613 0.0655207 0.0205767 
0.0223058 0.0660689 0.020503 0.0217793 0.0693696 0.0208153 0.0204446 0.0655787 0.0205 
0.016945 0.0693302 0.0205017 0.0182005 0.0678879 0.0217483 0.0205404 0.0668457 0.0212809 
0.0173864 0.0656663 0.0205769 0.0231936 0.0699169 0.0206261 0.0222159 0.0643179 0.0218857 
0.0229031 0.0653602 0.0222253 0.00413012 0.0710873 0.020632 0.00321674 0.0767368 0.0209999 
0.000773865 0.0726179 0.0205351 0.00718121 0.0733742 0.0207565 0.0010606 0.077145 0.0215987 
0.00577008 0.0719086 0.0226095 0.00549479 0.0747809 0.0221339 0.0126599 0.0769566 0.0205102 
0.00962452 0.0757185 0.0209485 0.0142235 0.0761667 0.0219769 0.0112526 0.0759719 0.0217833 
0.0122394 0.0737937 0.0221184 0.0101449 0.0770594 0.022281 0.00833318 0.0743938 0.0217723 
0.00824647 0.0730214 0.0214424 0.0233912 0.0710665 0.0222415 0.0221803 0.0713593 0.0210621 
0.0161373 0.0772494 0.0206256 0.0234927 0.0730764 0.0215111 0.00161328 0.00154749 0.0239237 
0.00542181 0.00115358 0.0269833 0.0018736 0.0043434 0.0278565 0.00733843 0.00305647 0.0235299 
0.0144431 0.00152343 0.0236557 0.00951604 0.000532637 0.0235447 0.0159005 0.000505512 0.0248438 
0.0132432 0.00650937 0.0231021 0.0100288 0.00413337 0.023603 0.00832514 0.00193042 0.0255355 
0.00878499 0.00423102 0.0238786 0.0107928 0.000923221 0.0287764 0.0119063 0.000510506 0.0270592 
0.0170683 0.00110704 0.0232787 0.0165618 0.00669227 0.0236872 0.0191292 0.00147601 0.0235524 
0.0222304 0.00287856 0.0259593 0.0212746 0.000844184 0.0278912 0.0228111 0.00594359 0.0273021 
0.0209699 0.00616651 0.0228978 0.023245 0.000818047 0.0292475 0.0188852 0.00369473 0.0260328 
0.0231584 0.00236293 0.0287956 0.0232737 0.00532242 0.0292887 0.00591263 0.0135011 0.0273416 
0.00152382 0.00928075 0.0239448 0.00104118 0.0103161 0.0250132 0.0077653 0.00905241 0.0281955 
0.00308465 0.0120929 0.0241566 0.00250054 0.0096586 0.0277254 0.00752133 0.00971191 0.0239771 
0.00128278 0.012627 0.0291856 0.0121919 0.0103335 0.0287552 0.0114132 0.0116628 0.0256533 
0.0102853 0.0138471 0.0269625 0.013513 0.0140337 0.0227123 0.0112755 0.0096279 0.023036 
0.0140704 0.0129388 0.0253313 0.0122101 0.00653991 0.0283376 0.0118305 0.0093789 0.0270814 
0.0127222 0.0130236 0.0285396 0.0230087 0.0130581 0.025516 0.0189956 0.00852297 0.0237927 
0.0231693 0.00796085 0.0268498 0.0197614 0.0133521 0.0255236 0.0201026 0.00930147 0.0245478 
0.0209985 0.00846257 0.0227603 0.0181449 0.0132315 0.0227285 0.00647972 0.0184973 0.0235274 
0.00598351 0.0159415 0.025759 0.000626881 0.0176682 0.0257259 0.00807455 0.0142846 0.0237239 
0.00899006 0.0148873 0.0267743 0.0144811 0.0159187 0.0227386 0.00917848 0.0186208 0.0234345 
0.0100163 0.0147493 0.0233357 0.00821427 0.017332 0.0247787 0.0109334 0.0203262 0.022602 
0.0103787 0.018203 0.0234936 0.0138782 0.0194827 0.0260813 0.00949202 0.0197423 0.0270518 
0.010603 0.0142884 0.0247058 0.013589 0.0171282 0.028876 0.00954205 0.0168642 0.0247608 
0.0231034 0.0172223 0.0251503 0.0225814 0.0185399 0.0241233 0.020405 0.0178804 0.0250887 
0.017626 0.0140998 0.0258938 0.0181122 0.0149367 0.0231143 0.0189091 0.0157789 0.0242227 
0.0205926 0.0149654 0.0281268 0.0227766 0.0168889 0.0287248 0.015843 0.0174883 0.0286577 
0.022123 0.0189271 0.0278279 0.0231227 0.0197594 0.0259665 0.00584468 0.021954 0.0247836 
0.00298479 0.0261624 0.0277242 0.000735549 0.0253574 0.0291569 0.00618586 0.027155 0.027898 
0.00540604 0.0278512 0.0234028 0.0115723 0.0265786 0.027511 0.0114821 0.0249383 0.0232202 
0.00743322 0.0256058 0.0293019 0.0100883 0.0261592 0.0235134 0.010474 0.0247673 0.0224897 
0.0187145 0.0269246 0.0261992 0.0221989 0.0242715 0.0239853 0.0229479 0.0268046 0.0263478 
0.022077 0.027403 0.0234877 0.0136958 0.0290304 0.0280559 0.000759298 0.0296819 0.0291753 
0.00418833 0.03115 0.0287565 0.00172495 0.0317616 0.0284829 0.003487 0.0347355 0.0242422 
0.00359074 0.0313488 0.0250944 0.00629414 0.0314008 0.0263878 0.00748582 0.0324371 0.0267209 
0.00862194 0.0338685 0.024527 0.00860075 0.0296302 0.0254925 0.0115342 0.0307492 0.0257756 
0.0133432 0.0340879 0.0244141 0.0214309 0.0300201 0.0252104 0.0232434 0.0324058 0.0268636 
0.0189799 0.0315822 0.0235802 0.0191922 0.034639 0.0228183 0.0232652 0.0305545 0.0242214 
0.0230366 0.0289222 0.0258311 0.0172091 0.0290886 0.025052 0.0226628 0.0337779 0.0239252 
0.00259944 0.0360917 0.022587 0.00418041 0.03933 0.0230207 0.00692594 0.0372278 0.0226109 
0.00730876 0.0385171 0.0231677 0.00109967 0.0419675 0.0289667 0.00643523 0.0417019 0.0241667 
0.0124527 0.0425461 0.0235375 0.0141006 0.0390612 0.0241158 0.00939968 0.0403203 0.0258891 
0.0114074 0.0376781 0.0239318 0.0161096 0.0365722 0.0247838 0.0163868 0.0423088 0.02257 
0.0222014 0.0370484 0.0257253 0.0214077 0.0356277 0.0242378 0.00276584 0.0444566 0.0235092 
0.00050626 0.0466557 0.0243953 0.00540148 0.0476839 0.0234191 0.00164308 0.0495269 0.0245452 
0.00323982 0.0460655 0.0258083 0.0125656 0.0473673 0.0224859 0.0122608 0.0455651 0.0246154 
0.0140803 0.0478547 0.0286394 0.00975106 0.045847 0.0251205 0.00840454 0.0491613 0.0259349 
0.0100817 0.0486237 0.0237364 0.0152102 0.0472999 0.0254586 0.0178908 0.0465737 0.0262575 
0.0229872 0.0462227 0.0238634 0.0213716 0.048883 0.0270664 0.0202887 0.0444076 0.0239036 
0.0184388 0.0438511 0.024695 0.0171828 0.0437335 0.0264141 0.00361826 0.0546242 0.0271657 
0.000826517 0.051189 0.0288357 0.00105699 0.056316 0.0240094 0.00155606 0.0530179 0.0239854 
0.00259508 0.0550154 0.0291149 0.00280144 0.0525434 0.0266143 0.00795327 0.0524919 0.0226242 
0.0132665 0.0568363 0.0246344 0.0146102 0.0526887 0.0240808 0.0149133 0.055159 0.0231293 
0.00825539 0.0559054 0.0225055 0.00817325 0.0515227 0.0249482 0.0113182 0.0549577 0.0288107 
0.0161505 0.0537171 0.0262241 0.0175529 0.0504105 0.024374 0.0202495 0.054829 0.0255705 
0.0219618 0.0552374 0.0276881 0.023489 0.0524899 0.0225128 0.0220206 0.0567668 0.0240442 
0.0174402 0.0537455 0.0248497 0.0184201 0.056271 0.0240711 0.0189201 0.0508625 0.0239266 
0.0231304 0.0540265 0.0252949 0.0200726 0.0518937 0.0243607 0.00436118 0.0593543 0.0284248 
0.00639629 0.0576449 0.0282836 0.00057425 0.0611702 0.0256217 0.00312884 0.0621386 0.0258303 
0.00224162 0.0576211 0.0291682 0.00116495 0.0626606 0.0228862 0.0045232 0.0607086 0.0226185 
0.00405508 0.0575795 0.0240385 0.00126477 0.059216 0.0282379 0.00727876 0.0601846 0.022513 
0.00135345 0.06202 0.0292387 0.0131202 0.0590991 0.0260966 0.00963853 0.0610836 0.0256681 
0.00826065 0.0616634 0.022586 0.0136397 0.0621069 0.0226243 0.0188798 0.0582951 0.0281535 
0.0232492 0.0615612 0.0235434 0.0226521 0.0607245 0.0270508 0.0191911 0.0579491 0.0228343 
0.0207236 0.0603963 0.0241225 0.0225893 0.0632453 0.0272441 0.0165056 0.0589303 0.0257636 
0.0211678 0.0572705 0.0269456 0.0160044 0.0593602 0.0235668 0.000774149 0.0652215 0.0244326 
0.00729818 0.0660525 0.0286274 0.00559101 0.0696432 0.0238871 0.00055686 0.0680538 0.0294751 
0.00053673 0.0676873 0.0238092 0.00731103 0.0668055 0.0238075 0.0018348 0.0695898 0.0239114 
0.00785568 0.0708571 0.0256552 0.00514918 0.0638198 0.0260651 0.000805157 0.0659147 0.0254875 
0.00193753 0.0639687 0.0242452 0.00183347 0.0686646 0.0287947 0.00360131 0.0668301 0.0263549 
0.0159227 0.0666002 0.0284502 0.0090369 0.068717 0.0256157 0.00828786 0.0693362 0.0232135 
0.0120104 0.0680327 0.0244859 0.0130231 0.0678207 0.027977 0.00892322 0.0670548 0.0227641 
0.0102298 0.0673757 0.0241319 0.009602 0.0696234 0.0235904 0.00876193 0.070587 0.0240174 
0.0137835 0.069458 0.0249797 0.0146783 0.0710207 0.0279216 0.016458 0.0664072 0.0243965 
0.0165666 0.0681494 0.0292394 0.0229314 0.0666037 0.0242344 0.0183688 0.0655935 0.0287345 
0.0194574 0.0659653 0.0230754 0.0186837 0.069521 0.023219 0.018815 0.068323 0.0286814 
0.0221181 0.0681879 0.0232103 0.019049 0.064772 0.0238981 0.0186573 0.0664252 0.0248577 
0.0198858 0.0678488 0.0239207 0.020617 0.0690316 0.0232203 0.00135726 0.0726388 0.0286715 
0.000502354 0.0740962 0.0262489 0.00119993 0.0754968 0.0288133 0.00127042 0.0772395 0.0290832 
0.00382158 0.0715933 0.0246766 0.00573123 0.076944 0.0273193 0.00536507 0.0758105 0.0290443 
0.00186143 0.0764573 0.0267121 0.00231034 0.0764891 0.0235578 0.00659006 0.0750761 0.024361 
0.00860451 0.0736299 0.0254257 0.00782666 0.0757272 0.0244181 0.00332638 0.0744314 0.0258975 
0.00248901 0.0774707 0.0294554 0.00489894 0.0758326 0.0281353 0.00933682 0.0768784 0.0282931 
0.00956071 0.0720152 0.0294673 0.011043 0.0721685 0.0292176 0.00957716 0.0746356 0.0228883 
0.00972854 0.0758073 0.0238263 0.0101642 0.0731346 0.0229238 0.00870493 0.0770949 0.0254262 
0.011915 0.0752939 0.0252828 0.0220253 0.0730394 0.0295005 0.0231276 0.0720067 0.0292113 
0.0219817 0.0747391 0.0258956 0.0219241 0.0754877 0.028478 0.0231699 0.0773697 0.0275931 
0.0209761 0.0729242 0.0294447 0.01939 0.0761422 0.0253644 0.0175127 0.0758222 0.023838 
0.0230011 0.0763363 0.0252601 0.0176944 0.076875 0.0264928 0.016039 0.0721449 0.0241598 
0.0198173 0.0714829 0.0243905 0.0179209 0.0213659 0.0277788 0.0200013 0.0594021 0.0237882 
0.0193559 0.0608375 0.0254735 0.00232497 0.0374297 0.0213492 0.0213949 0.0521684 0.0256975 
0.0209184 0.0748868 0.0210535 0.00705893 0.0241618 0.0215324 0.00110869 0.0316827 0.0249133 
0.0117747 0.0569549 0.0218634 
VERTICES 484 968
1 0 
1 1 
1 2 
1 3 
1 4 
1 5 
1 6 
1 7 
1 8 
1 9 
1 10 
1 11 
1 12 
1 13 
1 14 
1 15 
1 16 
1 17 
1 18 
1 19 
1 20 
1 21 
1 22 
1 23 
1 24 
1 25 
1 26 
1 27 
1 28 
1 29 
1 30 
1 31 
1 32 
1 33 
1 34 
1 35 
1 36 
1 37 
1 38 
1 39 
1 40 
1 41 
1 42 
1 43 
1 44 
1 45 
1 46 
1 47 
1 48 
1 49 
1 50 
1 51 
1 52 
1 53 
1 54 
1 55 
1 56 
1 57 
1 58 
1 59 
1 60 
1 61 
1 62 
1 63 
1 64 
1 65 
1 66 
1 67 
1 68 
1 69 
1 70 
1 71 
1 72 
1 73 
1 74 
1 75 
1 76 
1 77 
1 78 
1 79 
1 80 
1 81 
1 82 
1 83 
1 84 
1 85 
1 86 
1 87 
1 88 
1 89 
1 90 
1 91 
1 92 
1 93 
1 94 
1 95 
1 96 
1 97 
1 98 
1 99 
1 100 
1 101 
1 102 
1 103 
1 104 
1 105 
1 106 
1 107 
1 108 
1 109 
1 110 
1 111 
1 112 
1 113 
1 114 
1 115 
1 116 
1 117 
1 118 
1 119 
1 120 
1 121 
1 122 
1 123 
1 124 
1 125 
1 126 
1 127 
1 128 
1 129 
1 130 
1 131 
1 132 
1 133 
1 134 
1 135 
1 136 
1 137 
1 138 
1 139 
1 140 
1 141 
1 142 
1 143 
1 144 
1 145 
1 146 
1 147 
1 148 
1 149 
1 150 
1 151 
1 152 
1 153 
1 154 
1 155 
1 156 
1 157 
1 158 
1 159 
1 160 
1 161 
1 162 
1 163 
1 164 
1 165 
1 166 
1 167 
1 168 
1 169 
1 170 
1 171 
1 172 
1 173 
1 174 
1 175 
1 176 
1 177 
1 178 
1 179 
1 180 
1 181 
1 182 
1 183 
1 184 
1 185 
1 186 
1 187 
1 188 
1 189 
1 190 
1 191 
1 192 
1 193 
1 194 
1 195 
1 196 
1 197 
1 198 
1 199 
1 200 
1 201 
1 202 
1 203 
1 204 
1 205 
1 206 
1 207 
1 208 
1 209 
1 210 
1 211 
1 212 
1 213 
1 214 
1 215 
1 216 
1 217 
1 218 
1 219 
1 220 
1 221 
1 222 
1 223 
1 224 
1 225 
1 226 
1 227 
1 228 
1 229 
1 230 
1 231 
1 232 
1 233 
1 234 
1 235 
1 236 
1 237 
1 238 
1 239 
1 240 
1 241 
1 242 
1 243 
1 244 
1 245 
1 246 
1 247 
1 248 
1 249 
1 250 
1 251 
1 252 
1 253 
1 254 
1 255 
1 256 
1 257 
1 258 
1 259 
1 260 
1 261 
1 262 
1 263 
1 264 
1 265 
1 266 
1 267 
1 268 
1 269 
1 270 
1 271 
1 272 
1 273 
1 274 
1 275 
1 276 
1 277 
1 278 
1 279 
1 280 
1 281 
1 282 
1 283 
1 284 
1 285 
1 286 
1 287 
1 288 
1 289 
1 290 
1 291 
1 292 
1 293 
1 294 
1 295 
1 296 
1 297 
1 298 
1 299 
1 300 
1 301 
1 302 
1 303 
1 304 
1 305 
1 306 
1 307 
1 308 
1 309 
1 310 
1 311 
1 312 
1 313 
1 314 
1 315 
1 316 
1 317 
1 318 
1 319 
1 320 
1 321 
1 322 
1 323 
1 324 
1 325 
1 326 
1 327 
1 328 
1 329 
1 330 
1 331 
1 332 
1 333 
1 334 
1 335 
1 336 
1 337 
1 338 
1 339 
1 340 
1 341 
1 342 
1 343 
1 344 
1 345 
1 346 
1 347 
1 348 
1 349 
1 350 
1 351 
1 352 
1 353 
1 354 
1 355 
1 356 
1 357 
1 358 
1 359 
1 360 
1 361 
1 362 
1 363 
1 364 
1 365 
1 366 
1 367 
1 368 
1 369 
1 370 
1 371 
1 372 
1 373 
1 374 
1 375 
1 376 
1 377 
1 378 
1 379 
1 380 
1 381 
1 382 
1 383 
1 384 
1 385 
1 386 
1 387 
1 388 
1 389 
1 390 
1 391 
1 392 
1 393 
1 394 
1 395 
1 396 
1 397 
1 398 
1 399 
1 400 
1 401 
1 402 
1 403 
1 404 
1 405 
1 406 
1 407 
1 408 
1 409 
1 410 
1 411 
1 412 
1 413 
1 414 
1 415 
1 416 
1 417 
1 418 
1 419 
1 420 
1 421 
1 422 
1 423 
1 424 
1 425 
1 426 
1 427 
1 428 
1 429 
1 430 
1 431 
1 432 
1 433 
1 434 
1 435 
1 436 
1 437 
1 438 
1 439 
1 440 
1 441 
1 442 
1 443 
1 444 
1 445 
1 446 
1 447 
1 448 
1 449 
1 450 
1 451 
1 452 
1 453 
1 454 
1 455 
1 456 
1 457 
1 458 
1 459 
1 460 
1 461 
1 462 
1 463 
1 464 
1 465 
1 466 
1 467 
1 468 
1 469 
1 470 
1 471 
1 472 
1 473 
1 474 
1 475 
1 476 
1 477 
1 478 
1 479 
1 480 
1 481 
1 482 
1 483 

POINT_DATA 484
FIELD FieldData 7
id 1 484 int
199 324 448 51 25 178 32 100 395 
213 474 161 155 159 204 219 126 108 
333 228 274 360 64 380 89 442 97 
217 275 289 307 46 10 171 190 200 
319 57 143 452 192 185 98 154 287 
110 44 121 75 13 308 153 80 30 
62 78 293 90 231 113 209 33 330 
212 137 323 174 439 451 70 49 41 
71 260 43 1 60 42 315 337 272 
130 139 162 12 36 249 436 247 269 
348 354 386 405 433 400 345 54 152 
91 261 198 374 146 3 316 122 423 
259 138 40 328 402 410 309 242 268 
73 353 394 285 244 254 165 331 361 
346 88 335 112 168 74 431 470 475 
94 264 379 332 421 105 381 8 147 
133 306 327 227 48 186 45 84 157 
179 222 263 129 86 299 216 356 417 
24 81 414 104 271 313 158 18 225 
255 20 76 82 351 288 235 181 325 
387 26 408 473 39 257 14 134 239 
163 9 404 102 52 418 280 187 210 
149 182 69 262 443 87 125 79 195 
72 29 101 435 85 329 141 93 291 
170 388 466 31 176 241 282 362 364 
370 151 148 123 290 142 160 17 92 
273 202 15 136 322 156 256 390 392 
427 300 447 28 16 115 230 311 318 
372 34 47 320 77 106 281 365 419 
432 66 35 401 368 188 61 120 59 
164 237 252 342 296 208 450 399 463 
340 6 109 211 233 334 2 5 459 
172 124 19 223 175 245 180 55 189 
220 118 465 279 350 238 326 397 99 
11 145 382 338 278 286 343 236 412 
425 369 304 144 221 415 416 457 471 
430 265 347 366 375 462 403 441 444 
453 305 383 384 406 37 196 276 378 
357 367 371 344 424 428 454 467 409 
218 321 426 456 472 314 116 226 251 
232 95 7 250 301 303 373 446 201 
193 114 38 63 67 191 258 341 349 
411 445 119 205 267 184 107 96 103 
140 270 396 194 359 413 438 455 246 
117 169 150 131 224 461 355 469 56 
4 407 53 132 135 183 128 352 422 
437 243 464 111 302 277 376 68 214 
339 358 398 420 389 266 240 294 336 
65 297 310 312 317 377 385 429 197 
215 229 284 363 203 295 50 22 127 
177 292 167 283 468 58 248 440 173 
23 206 298 393 458 21 234 27 166 
83 207 253 391 434 449 460 476 477 
478 479 480 481 482 483 484 
type 1 484 int
1 1 1 1 1 1 1 1 1 
1 1 1 1 1 1 1 1 1 
1 1 1 1 1 1 1 1 1 
1 1 1 1 1 1 1 1 1 
1 1 1 1 1 1 1 1 1 
1 1 1 1 1 1 1 1 1 
1 1 1 1 1 1 1 1 1 
1 1 1 1 1 1 1 1 1 
1 1 1 1 1 1 1 1 1 
1 1 1 1 1 1 1 1 1 
1 1 1 1 1 1 1 1 1 
1 1 1 1 1 1 1 1 1 
1 1 1 1 1 1 1 1 1 
1 1 1 1 1 1 1 1 1 
1 1 1 1 1 1 1 1 1 
1 1 1 1 1 1 1 1 1 
1 1 1 1 1 1 1 1 1 
1 1 1 1 1 1 1 1 1 
1 1 1 1 1 1 1 1 1 
1 1 1 1 1 1 1 1 1 
1 1 1 1 1 1 1 1 1 
1 1 1 1 1 1 1 1 1 
1 1 1 1 1 1 1 1 1 
1 1 1 1 1 1 1 1 1 
1 1 1 1 1 1 1 1 1 
1 1 1 1 1 1 1 1 1 
1 1 1 1 1 1 1 1 1 
1 1 1 1 1 1 1 1 1 
1 1 1 1 1 1 1 1 1 
1 1 1 1 1 1 1 1 1 
1 1 1 1 1 1 1 1 1 
1 1 1 1 1 1 1 1 1 
1 1 1 1 1 1 1 1 1 
1 1 1 1 1 1 1 1 1 
1 1 1 1 1 1 1 1 1 
1 1 1 1 1 1 1 1 1 
1 1 1 1 1 1 1 1 1 
1 1 1 1 1 1 1 1 1 
1 1 1 1 1 1 1 1 1 
1 1 1 1 1 1 1 1 1 
1 1 1 1 1 1 1 1 1 
1 1 1 1 1 1 1 1 1 
1 1 1 1 1 1 1 1 1 
1 1 1 1 1 1 1 1 1 
1 1 1 1 1 1 1 1 1 
1 1 1 1 1 1 1 1 1 
1 1 1 1 1 1 1 1 1 
1 1 1 1 1 1 1 1 1 
1 1 1 1 1 1 1 1 1 
1 1 1 1 1 1 1 1 1 
1 1 1 1 1 1 1 1 1 
1 1 1 1 1 1 1 1 1 
1 1 1 1 1 1 1 1 1 
1 1 1 1 1 1 1 
i 3 484 int
0 0 0 0 0 0 0 0 0 
0 0 0 0 0 0 0 0 0 
0 0 0 0 0 0 0 0 0 
0 0 0 0 0 0 0 0 0 
0 0 0 0 0 0 0 0 0 
0 0 0 0 0 0 0 0 0 
0 0 0 0 0 0 0 0 0 
0 0 0 0 0 0 0 0 0 
0 0 0 0 0 0 0 0 0 
0 0 0 0 0 0 0 0 0 
0 0 0 0 0 0 0 0 0 
0 0 0 0 0 0 0 0 0 
0 0 0 0 0 0 0 0 0 
0 0 0 0 0 0 0 0 0 
0 0 0 0 0 0 0 0 0 
0 0 0 0 0 0 0 0 0 
0 0 0 0 0 0 0 0 0 
0 0 0 0 0 0 0 0 0 
0 0 0 0 0 0 0 0 0 
0 0 0 0 0 0 0 0 0 
0 0 0 0 0 0 0 0 0 
0 0 0 0 0 0 0 0 0 
0 0 0 0 0 0 0 0 0 
0 0 0 0 0 0 0 0 0 
0 0 0 0 0 0 0 0 0 
0 0 0 0 0 0 0 0 0 
0 0 0 0 0 0 0 0 0 
0 0 0 0 0 0 0 0 0 
0 0 0 0 0 0 0 0 0 
0 0 0 0 0 0 0 0 0 
0 0 0 0 0 0 0 0 0 
0 0 0 0 0 0 0 0 0 
0 0 0 0 0 0 0 0 0 
0 0 0 0 0 0 0 0 0 
0 0 0 0 0 0 0 0 0 
0 0 0 0 0 0 0 0 0 
0 0 0 0 0 0 0 0 0 
0 0 0 0 0 0 0 0 0 
0 0 0 0 0 0 0 0 0 
0 0 0 0 0 0 0 0 0 
0 0 0 0 0 0 0 0 0 
0 0 0 0 0 0 0 0 0 
0 0 0 0 0 0 0 0 0 
0 0 0 0 0 0 0 0 0 
0 0 0 0 0 0 0 0 0 
0 0 0 0 0 0 0 0 0 
0 0 0 0 0 0 0 0 0 
0 0 0 0 0 0 0 0 0 
0 0 0 0 0 0 0 0 0 
0 0 0 0 0 0 0 0 0 
0 0 0 0 0 0 0 0 0 
0 0 0 0 0 0 0 0 0 
0 0 0 0 0 0 0 0 0 
0 0 0 0 0 0 0 0 0 
0 0 0 0 0 0 0 0 0 
0 0 0 0 0 0 0 0 0 
0 0 0 0 0 0 0 0 0 
0 0 0 0 0 0 0 0 0 
0 0 0 0 0 0 0 0 0 
0 0 0 0 0 0 0 0 0 
0 0 0 0 0 0 0 0 0 
0 0 0 0 0 0 0 0 0 
0 0 0 0 0 0 0 0 0 
0 0 0 0 0 0 0 0 0 
0 0 0 0 0 0 0 0 0 
0 0 0 0 0 0 0 0 0 
0 0 0 0 0 0 0 0 0 
0 0 0 0 0 0 0 0 0 
0 0 0 0 0 0 0 0 0 
0 0 0 0 0 0 0 0 0 
0 0 0 0 0 0 0 0 0 
0 0 0 0 0 0 0 0 0 
0 0 0 0 0 0 0 0 0 
0 0 0 0 0 0 0 0 0 
0 0 0 0 0 0 0 0 0 
0 0 0 0 0 0 0 0 0 
0 0 0 0 0 0 0 0 0 
0 0 0 0 0 0 0 0 0 
0 0 0 0 0 0 0 0 0 
0 0 0 0 0 0 0 0 0 
0 0 0 0 0 0 0 0 0 
0 0 0 0 0 0 0 0 0 
0 0 0 0 0 0 0 0 0 
0 0 0 0 0 0 0 0 0 
0 0 0 0 0 0 0 0 0 
0 0 0 0 0 0 0 0 0 
0 0 0 0 0 0 0 0 0 
0 0 0 0 0 0 0 0 0 
0 0 0 0 0 0 0 0 0 
0 0 0 0 0 0 0 0 0 
0 0 0 0 0 0 0 0 0 
0 0 0 0 0 0 0 0 0 
0 0 0 0 0 0 0 0 0 
0 0 0 0 0 0 0 0 0 
0 0 0 0 0 0 0 0 0 
0 0 0 0 0 0 0 0 0 
0 0 0 0 0 0 0 0 0 
0 0 0 0 0 0 0 0 0 
0 0 0 0 0 0 0 0 0 
0 0 0 0 0 0 0 0 0 
0 0 0 0 0 0 0 0 0 
0 0 0 0 0 0 0 0 0 
0 0 0 0 0 0 0 0 0 
0 0 0 0 0 0 0 0 0 
0 0 0 0 0 0 0 0 0 
0 0 0 0 0 0 0 0 0 
0 0 0 0 0 0 0 0 0 
0 0 0 0 0 0 0 0 0 
0 0 0 0 0 0 0 0 0 
0 0 0 0 0 0 0 0 0 
0 0 0 0 0 0 0 0 0 
0 0 0 0 0 0 0 0 0 
0 0 0 0 0 0 0 0 0 
0 0 0 0 0 0 0 0 0 
0 0 0 0 0 0 0 0 0 
0 0 0 0 0 0 0 0 0 
0 0 0 0 0 0 0 0 0 
0 0 0 0 0 0 0 0 0 
0 0 0 0 0 0 0 0 0 
0 0 0 0 0 0 0 0 0 
0 0 0 0 0 0 0 0 0 
0 0 0 0 0 0 0 0 0 
0 0 0 0 0 0 0 0 0 
0 0 0 0 0 0 0 0 0 
0 0 0 0 0 0 0 0 0 
0 0 0 0 0 0 0 0 0 
0 0 0 0 0 0 0 0 0 
0 0 0 0 0 0 0 0 0 
0 0 0 0 0 0 0 0 0 
0 0 0 0 0 0 0 0 0 
0 0 0 0 0 0 0 0 0 
0 0 0 0 0 0 0 0 0 
0 0 0 0 0 0 0 0 0 
0 0 0 0 0 0 0 0 0 
0 0 0 0 0 0 0 0 0 
0 0 0 0 0 0 0 0 0 
0 0 0 0 0 0 0 0 0 
0 0 0 0 0 0 0 0 0 
0 0 0 0 0 0 0 0 0 
0 0 0 0 0 0 0 0 0 
0 0 0 0 0 0 0 0 0 
0 0 0 0 0 0 0 0 0 
0 0 0 0 0 0 0 0 0 
0 0 0 0 0 0 0 0 0 
0 0 0 0 0 0 0 0 0 
0 0 0 0 0 0 0 0 0 
0 0 0 0 0 0 0 0 0 
0 0 0 0 0 0 0 0 0 
0 0 0 0 0 0 0 0 0 
0 0 0 0 0 0 0 0 0 
0 0 0 0 0 0 0 0 0 
0 0 0 0 0 0 0 0 0 
0 0 0 0 0 0 0 0 0 
0 0 0 0 0 0 0 0 0 
0 0 0 0 0 0 0 0 0 
0 0 0 0 0 0 0 0 0 
0 0 0 0 0 0 0 0 0 
0 0 0 0 0 0 0 0 0 
0 0 0 0 0 0 0 0 0 
0 0 0 0 0 0 0 0 0 
0 0 0 0 0 0 0 0 0 
0 0 0 
v 3 484 double
2.63375 0.140064 0.492368 -0.656967 3.11526 -0.00157216 0 0 -0.226096 
3.15737 -3.57612 0.819059 0.734091 0.470726 1.53749 10.5797 0.340565 1.94429e-11 
-1.60747 1.55202 -1.97884e-11 -1.20017 -2.52221 0.118759 0 0 -0.453688 
0.420092 -0.11579 -1.62193 0 0 -0.0590807 10.5918 0.045305 8.51396e-12 
-0.791222 -0.0548184 -1.42487 0 0 -0.0560537 1.26028 1.30688 0.0292481 
0.856216 -2.13409 -0.8962 1.46165 0.882119 -0.429515 -0.597699 -0.513156 -0.386133 
-1.82113 8.1957 2.59388 0 0 1.59744e-11 0 0 -1.01923 
0 0 -0.650133 2.32543 -0.718883 0.557733 2.65274 0.0594493 -0.634325 
0 0 -1.82856 0 0 -0.244244 0 0 0.360398 
1.18679 0.0933891 -2.04839 0 0 -1.0185 0 0 -0.0257255 
0 0 -0.886064 -0.0409405 -2.70187 -0.349843 5.64943 2.33312 -4.56679 
-0.162767 1.25838 0.0199482 0 0 1.94684e-11 0.465474 -0.8216 -0.245255 
0 0 -0.837995 1.73879 1.60522 4.63726e-07 1.53364 2.35703 -0.881317 
0 0 -0.203778 5.4185 3.91843 -5.40533 1.83417 -1.03055 -2.87962 
-1.80118 -2.77965 -0.493241 1.00972 -1.21318 0.013519 3.51377 1.6655 0.631364 
1.80875 1.40695 0.335667 0.0581155 -2.12907 0.185528 0.668266 2.48129 -4.68204 
0.340879 -4.52622 -3.69483 -3.67289 -6.63428 0.355336 9.656 -6.47601 0.0876602 
-3.32424 -12.3481 1.01253 -2.55854 -9.18942 -0.361337 5.16317 -0.125878 -4.2301 
1.40179 -1.03248 2.93477e-09 10.3731 -11.1518 -0.00968987 7.18264 -9.75087 -4.63085 
5.88591 -4.45175 2.48056 0.730229 1.26661 0.331166 0 0 0.0319192 
0 0 1.53992e-07 0.281286 -4.60862 -0.00111667 -0.909268 2.67816 1.0174 
-1.90674 -3.53259 12.367 -2.69466 -3.8914 -0.0417487 -4.20924 -5.95488 1.25359 
1.35466 -7.00132 0.76548 2.44331 -10.4861 -2.93089 5.09719 -0.214817 -7.42804 
-5.2302 -2.53751 0.00117169 9.29381 -2.46594 0.803041 5.38428 -7.24448 0.190939 
-3.73885 -9.70144 -3.17807 -1.15784 -2.52053 -2.44441 -1.51086 -5.83664 -4.5969 
-3.90126 -5.44446 -5.19663 -1.58273 -2.95255 -3.41875 1.30027 2.40874 -0.0102145 
-0.951792 1.79087 3.9707 3.45553 5.91844 3.24359 -0.271624 3.88263 0.0077927 
-1.45636 -0.375021 -2.97548 -1.43732 -11.1968 0.841177 0.189097 2.59381 -0.642955 
0.62311 -1.51635 -0.00505161 0.190805 -1.00217 -0.209134 -1.16118 -0.040603 0.123698 
0 0 -0.282503 0 0 -2.10692e-12 -1.28917 -0.361391 0.174804 
0 0 -0.705069 0 0 -0.672206 0 0 -0.510831 
0 0 -0.411995 -0.36486 1.02084 -2.22718 -0.0850682 4.95881 0.476652 
1.1088 2.86656 1.0729 -2.80692 -0.0826216 -0.138095 -0.311896 -2.53739 -0.322419 
-3.7468 -0.219484 0.390128 0 0 -0.0472551 -2.14204 -2.64334 0.163701 
1.85791 0.336888 0.74169 -2.69859 -17.3347 -8.29369 0 0 1.50429e-11 
-1.37139 3.62509 18.1348 0.213182 0.0322206 -2.4009 0 0 -0.330327 
0.412402 -9.37108 -3.38795 0 0 -1.64241 0 0 0.104656 
0 0 -0.81347 0.00103979 0.00161803 -0.423305 0 0 -0.403412 
0 0 1.26925 0 0 -1.17203 0 0 -1.04057 
1.22058 2.54084 2.20756e-06 -0.951914 -0.416602 -1.3023 0 0 -0.454178 
-2.88768 -2.4843 0.396063 -2.72135 14.3496 0.120407 0 0 0.0651035 
-6.30394 1.01443 2.97166e-06 0 0 -0.784285 0.405106 5.8428 0.652587 
3.94184 6.15709 -0.0204369 0 0 2.87921e-11 0 0 -0.75976 
0.777053 1.2375 0.133843 -1.50785 2.23275 0.0172023 -0.0105 -1.22235 0.560636 
-13.1944 2.88194 -0.265677 0 0 -0.0774745 -19.522 -13.6181 29.4836 
0.852745 0.194743 -6.8754e-12 0 0 -1.0624 0 0 -0.56822 
-16.6338 4.06814 0.355783 0 0 1.14878e-06 0.698986 3.41441 -8.92141 
0.5569 -0.92179 -7.8993 2.99593 -4.65525 0.0674922 0 0 -1.59459 
1.22218 -2.79846 -1.26049 -0.218665 0.285989 0.239911 -1.46969 -3.81269 2.4366 
0.284574 -3.63826 9.22096e-07 1.74586 2.3121 0.167056 8.97419 -0.56323 0.010484 
0.124459 1.14186 -0.158302 -0.172077 3.56475 -0.102612 -0.394617 3.08647 0.520644 
1.38707 3.37774 0.534215 -0.673003 6.13402 -3.69344 -5.43708 6.00028 0.428278 
3.24295 13.6571 0.0516323 1.04064 8.79901 0.157812 3.59783 17.3081 1.02238 
0.193543 0.607514 0.0226842 -0.916599 3.98785 0.00418574 0.0415452 -0.0784875 -0.0355468 
1.13968 -1.94488 0.823269 0 0 -3.37527e-10 0 0 -0.387961 
-0.651319 4.58985 -1.48088 -0.137488 0.105952 -1.2957 0 0 -0.855162 
1.00756 1.80626 -0.0659836 -1.18091 1.84599 -0.63918 3.63491 0.338372 -2.33328 
0.113877 0.144769 -1.0776 0.399589 10.3068 -2.11775e-05 -2.32344 -0.143748 -2.79751 
1.39163 3.14874 0.455993 -1.15687 -6.37185 0.109097 2.78569 1.34111 0.220375 
1.56938 -0.630852 -0.028641 0 0 0.618856 0 0 -0.822299 
0 0 0.0175585 -0.496126 0.692906 -1.84412 1.7408 2.29908 0.647266 
0 0 -0.061288 3.66211 2.85563 0.0332618 1.18263 3.01105 0.233618 
2.90975 3.88234 0.0888634 0 0 -1.66007 1.77336 1.88814 -7.35838e-09 
-0.0348571 1.79126 -0.215955 3.90623 4.22135 0.30426 2.29295 0.0965986 -0.746055 
-4.16216 2.27648 0.512412 -1.62199 -0.772658 0.693382 1.70024 -0.130084 1.265 
0 0 -1.00329 -1.91696 -0.135525 0.539269 -2.27682 1.6837 -3.45014e-11 
0 0 -1.58576 0 0 -0.0405913 -4.46709 -0.253669 0.881655 
3.7206 2.68399 3.4437 0 0 -0.243018 8.55615 -0.625559 0.207893 
0 0 -1.6998 -0.233039 0.635402 0.110163 -0.384117 3.40261 -0.513554 
0.511192 2.9859 0.29874 0.456901 -0.10316 -0.539779 -1.37257 2.3678 -3.10496 
0 0 -0.292313 -0.77419 -0.90469 3.75445 0.219553 0.350926 -0.0658194 
-5.12888 -1.48558 0.765702 -0.0251389 5.05641 -6.21286 0.386929 -0.102428 -0.154357 
6.17108 0.636741 -0.383556 0.576819 -3.41818 9.24938 0 0 -0.134863 
10.4763 0.218529 3.24313 0 0 -1.45087 0 0 -1.17693 
0 0 -1.00158 0 0 -0.637871 0 0 -0.621684 
0 0 -0.603781 -17.0857 0.989072 -1.01358 -3.88529 2.93372 -6.78218 
10.9082 0.365534 1.75443 9.77239 8.22954 0.179627 0.638674 -18.0039 -7.87649 
0.282376 -1.69213 -1.09401 -5.68272 1.2726 -3.57722 2.89407 -0.786455 8.00732 
4.04857 -3.42948 -1.80185 -0.269316 2.76767 -0.138183 -8.92635 -8.99535 -0.298607 
-1.79915 6.19844 -4.47429 -1.90322 -16.7781 -2.22637 1.07387 2.46968 1.22926 
0 0 -1.11513 0 0 -0.486551 3.14793 2.18179 -3.22347 