# vtk DataFile Version 4.0
Generated by LIGGGHTS
ASCII
DATASET POLYDATA
POINTS 2870 float
0.00337245 0.00220637 0.0215003 0.000499899 0.00150017 0.0204998 0.00532483 0.00440085 0.0207499 
0.00474691 0.000500598 0.0205 0.00425901 0.00370172 0.0205 0.00274536 0.000499982 0.0205 
0.00455811 0.00591609 0.0204999 0.000499952 0.000499969 0.0205 0.00100004 0.00282058 0.0210051 
0.00698814 0.00563817 0.0205 0.00374533 0.000501578 0.0205 0.000535745 0.00528591 0.0205128 
0.00631575 0.00329123 0.0214768 0.00502911 0.00169083 0.0205 0.00128738 0.00627984 0.0204998 
0.00602072 0.00156029 0.0205 0.000503364 0.00423585 0.0205 0.00537641 0.00290179 0.02075 
0.00604606 0.000500258 0.0215619 0.00576358 0.000502149 0.0205 0.000724741 0.000501355 0.0214743 
0.00699262 0.00230569 0.0207499 0.00162264 0.000989007 0.0207505 0.00696266 0.000752683 0.02075 
0.00314193 0.00392252 0.0204998 0.00267263 0.00483382 0.0205 0.00222711 0.00351931 0.0204999 
0.00181149 0.000750452 0.0222233 0.000509334 0.00148357 0.0215126 0.000499884 0.00621224 0.0211122 
0.00165915 0.00443784 0.0211291 0.00648588 0.00342054 0.0204999 0.00526419 0.00101061 0.0212014 
0.00286567 0.00455277 0.0214458 0.00442602 0.000501147 0.0214471 0.000499991 0.000499981 0.0224487 
0.00762523 0.00335449 0.0204999 0.00797429 0.00144297 0.0205 0.00710315 0.00420717 0.0204998 
0.00578171 0.00584912 0.02075 0.00190116 0.00549047 0.0205 0.0012891 0.00562041 0.0212926 
0.00519432 0.000503939 0.0220871 0.00390382 0.00488104 0.0207497 0.0066575 0.00470634 0.021842 
0.00548669 0.00192937 0.0215275 0.00658814 0.00155086 0.0219814 0.00174138 0.00305469 0.022292 
0.00507061 0.00147033 0.0223125 0.000500046 0.00229503 0.0223215 0.00521421 0.00653448 0.0216278 
0.00702608 0.00329221 0.0221806 0.00756629 0.00247529 0.0218475 0.00397892 0.000504657 0.0223623 
0.00749845 0.00651577 0.0219778 0.00716067 0.0066232 0.0205 0.00535677 0.00285645 0.0220016 
0.00487752 0.00686337 0.0204997 0.000501217 0.00479805 0.0214362 0.00226366 0.00417625 0.0224767 
0.0058257 0.00592345 0.0221311 0.00301455 0.00699012 0.0217545 0.000749721 0.00391428 0.0223472 
0.000758336 0.00607799 0.0223277 0.00625554 0.00269727 0.0224107 0.00831386 0.00104672 0.0219125 
0.00808249 0.0062276 0.0205 0.00848032 0.00387304 0.0205 0.00802432 0.00500102 0.0207889 
0.00931066 0.00546462 0.0214053 0.00898879 0.0057417 0.0204999 0.00921784 0.00458105 0.0205 
0.0116497 0.00422495 0.0204998 0.0101482 0.00280582 0.0204999 0.0138037 0.00245844 0.02075 
0.0101174 0.00180644 0.0205001 0.0103293 0.000500012 0.0205005 0.0125559 0.000499882 0.0204999 
0.0109633 0.00127353 0.0204999 0.00832024 0.000504737 0.0205 0.0108638 0.00524843 0.0204999 
0.013276 0.00394649 0.0205 0.00853311 0.00253274 0.02075 0.0108766 0.00632107 0.0205 
0.00998869 0.00573224 0.0205 0.0125316 0.00571508 0.0215 0.0100299 0.00108005 0.021567 
0.00917004 0.00148689 0.0204999 0.00938958 0.00345707 0.0205 0.0142566 0.00556587 0.0204997 
0.0148497 0.00410059 0.0212498 0.00932928 0.000499858 0.0205 0.0117124 0.00265495 0.0212698 
0.0137547 0.000749826 0.0207499 0.0104313 0.00410265 0.0207499 0.0115716 0.000499792 0.0206752 
0.0128172 0.00153762 0.0204999 0.0157351 0.00150931 0.0214999 0.0140041 0.00695129 0.0205 
0.0127244 0.00049996 0.0214855 0.0102729 0.00521105 0.0213057 0.0149116 0.00632106 0.0204999 
0.0133745 0.00156232 0.0223213 0.0104554 0.00586884 0.0223531 0.0118233 0.000929886 0.0215421 
0.00999431 0.00231151 0.0213555 0.0159645 0.00569583 0.02075 0.00884752 0.00589244 0.0221815 
0.0110562 0.00439702 0.0217935 0.0110963 0.00703648 0.0219425 0.0147368 0.00610586 0.0217187 
0.0118229 0.00404059 0.0223328 0.0111137 0.00127207 0.0221596 0.013215 0.00329488 0.021927 
0.0159938 0.00524522 0.0219156 0.0164002 0.00447398 0.0205 0.0220913 0.000749807 0.0207499 
0.0235 0.00522254 0.0205 0.0203779 0.00100192 0.0209999 0.0232502 0.00170154 0.0207499 
0.0206508 0.00271219 0.0207499 0.0205342 0.00480382 0.0205 0.0187347 0.00159144 0.0207496 
0.0215312 0.00186084 0.0205 0.017147 0.000500102 0.0205 0.0234998 0.000500538 0.0205 
0.0209582 0.00389789 0.0205 0.0181472 0.000505507 0.0205 0.0216944 0.00188718 0.0217389 
0.020963 0.00595132 0.02075 0.0197391 0.00590523 0.0204999 0.0225021 0.00435037 0.0205 
0.0218501 0.00295913 0.0204998 0.0235001 0.00422271 0.0204998 0.0171812 0.00583531 0.0205 
0.0232476 0.00642075 0.0207503 0.0210933 0.00442423 0.0213491 0.0215306 0.00472025 0.0205 
0.0201519 0.00629578 0.0216372 0.0222937 0.00527562 0.0216673 0.016903 0.00278983 0.0205 
0.0229337 0.00325323 0.0214941 0.0219612 0.00666272 0.0205 0.0222356 0.000499986 0.0219661 
0.0185065 0.0041789 0.0222499 0.0215707 0.00664574 0.0215931 0.0189966 0.0004995 0.0212977 
0.0178689 0.000831683 0.0217215 0.0214731 0.00350294 0.0212609 0.0209943 0.00593184 0.0220345 
0.019208 0.00122518 0.022293 0.0185067 0.00661766 0.0205 0.0207327 0.00703945 0.021971 
0.000533089 0.00747493 0.0219769 0.000752657 0.00738155 0.0207499 0.00610474 0.00756518 0.0209998 
0.00127024 0.00849421 0.0205 0.00177625 0.0102799 0.0204999 0.00230366 0.00917449 0.0207498 
0.00714466 0.0118536 0.0205 0.00347007 0.00880125 0.0204999 0.00264728 0.0119312 0.0205 
0.00445579 0.010772 0.0207502 0.000499946 0.0111047 0.0204999 0.00508726 0.0097218 0.0205 
0.00159464 0.0113722 0.0205 0.00385033 0.0121648 0.0207499 0.00576479 0.0102912 0.0213841 
0.00501804 0.0118445 0.0210602 0.00278711 0.0130128 0.0205 0.000501257 0.0131064 0.0205 
0.003645 0.0135282 0.0205 0.00597025 0.012097 0.0204994 0.00561652 0.0111619 0.0204999 
0.00502274 0.0126728 0.0205 0.00341204 0.0129645 0.0216047 0.00718217 0.0133683 0.0204998 
0.00592866 0.0130961 0.0205 0.0016214 0.0126017 0.0207499 0.000501053 0.0121047 0.0205 
0.00580868 0.00902932 0.0205 0.00404729 0.00961765 0.0204999 0.000750207 0.00961046 0.0207499 
0.00161284 0.00970372 0.0216497 0.00241602 0.0130529 0.0216028 0.00049986 0.00849572 0.0212569 
0.000500031 0.0136351 0.0213789 0.00775531 0.00808839 0.0207495 0.00297842 0.0105138 0.0207501 
0.00710538 0.0106295 0.02075 0.000555254 0.0116259 0.0213788 0.00467499 0.00856605 0.02075 
0.00639267 0.0139818 0.0204999 0.00338166 0.0120091 0.0218981 0.00496509 0.0138961 0.02075 
0.00376437 0.00937419 0.0216937 0.00679241 0.00917546 0.0212571 0.00219277 0.0114857 0.0215917 
0.00116896 0.0107401 0.0211474 0.00475939 0.0110524 0.0219299 0.0014683 0.00860152 0.0214818 
0.00112822 0.0127624 0.0224247 0.00231424 0.0137568 0.0223057 0.000500133 0.0141125 0.0205 
0.0025839 0.0124088 0.0223493 0.00350827 0.010787 0.0221276 0.00785052 0.00959718 0.0222363 
0.00836864 0.011813 0.02075 0.0152915 0.00724573 0.0204999 0.00838831 0.0135128 0.0207937 
0.0138753 0.00795961 0.0205 0.00966149 0.0103333 0.0204996 0.0124731 0.00815865 0.0205 
0.0130749 0.00735998 0.0205 0.00950135 0.00723739 0.0212499 0.011417 0.00751966 0.0207499 
0.0115264 0.00901548 0.0207498 0.0102818 0.00861382 0.0205 0.0108935 0.0103755 0.0207497 
0.0115361 0.0117305 0.02075 0.0094886 0.0113179 0.0205 0.00870335 0.0106347 0.0205 
0.0131035 0.00894435 0.0205 0.0103198 0.0118735 0.0204999 0.00959523 0.0133755 0.0204999 
0.00945707 0.0123824 0.0205 0.0107661 0.0130175 0.0207502 0.00911308 0.00877418 0.0205 
0.0122651 0.013067 0.02075 0.0123148 0.0107757 0.0205 0.0137683 0.0107171 0.0209998 
0.00815643 0.00953891 0.02075 0.0115937 0.0108745 0.0219803 0.0127604 0.0117088 0.0204998 
0.0133564 0.0125115 0.0204998 0.00923169 0.0107862 0.0213353 0.0089393 0.0126182 0.0215171 
0.00822273 0.0106453 0.0213768 0.0126251 0.0098225 0.0205 0.0127575 0.0119697 0.0217223 
0.0147395 0.00958583 0.021162 0.0110587 0.00829015 0.0219861 0.00976276 0.00942938 0.0216918 
0.0140611 0.0092594 0.0205 0.0150036 0.00843585 0.02075 0.0101164 0.0118127 0.0219848 
0.0152451 0.0110948 0.0205 0.0152186 0.0104752 0.021337 0.0133377 0.0136659 0.0204999 
0.0128164 0.010684 0.0221585 0.0152612 0.013119 0.0220002 0.0121396 0.00991082 0.0213699 
0.00848926 0.00864386 0.0215942 0.0155443 0.00896518 0.021745 0.0147202 0.0106626 0.0221835 
0.01592 0.00962328 0.02075 0.0114983 0.0135673 0.0216011 0.0126772 0.013486 0.0218532 
0.0112374 0.00969745 0.0217567 0.00975473 0.0140266 0.0221613 0.0135886 0.0112981 0.0223709 
0.0102897 0.0141455 0.0204997 0.0161322 0.0108806 0.0213059 0.0198545 0.00712444 0.0207498 
0.0170228 0.0121732 0.0204999 0.0235 0.00761898 0.0205 0.0169952 0.00755758 0.0214997 
0.0226469 0.00721813 0.0218705 0.0235001 0.00961862 0.0204999 0.0213459 0.00800488 0.0209997 
0.0179291 0.0129969 0.0207499 0.0187385 0.00785952 0.0205 0.0203475 0.00906589 0.0214864 
0.0187784 0.00940947 0.0209999 0.0163517 0.0114304 0.0205 0.0173735 0.00924775 0.0204999 
0.0229997 0.0109133 0.0210683 0.02042 0.00924046 0.0205 0.0171682 0.0104551 0.0207498 
0.0177775 0.0115173 0.0204999 0.0201286 0.0129519 0.0205 0.0213055 0.0112452 0.02075 
0.0235 0.0122189 0.0205 0.0234923 0.0086188 0.0205 0.0198402 0.00834979 0.0210024 
0.0222107 0.0124423 0.0207499 0.0204797 0.0102665 0.0205 0.0224496 0.013923 0.0207498 
0.0209788 0.0124256 0.0205 0.0234998 0.013227 0.0205 0.021369 0.0133463 0.0205 
0.0217816 0.00969329 0.0207498 0.0171262 0.0115784 0.021297 0.0210902 0.0124353 0.0217469 
0.023069 0.0131646 0.0215267 0.0235 0.0122626 0.0214991 0.0191458 0.0131364 0.0205 
0.0193575 0.0115692 0.0212499 0.0229453 0.00912913 0.0215093 0.0219157 0.0115118 0.0219148 
0.0235 0.00801264 0.0214192 0.0200651 0.0132454 0.0214538 0.0207688 0.0102309 0.0217165 
0.0193347 0.00749648 0.0223787 0.0177898 0.0122044 0.0217064 0.0182781 0.0134624 0.0218563 
0.0191313 0.0136413 0.0213635 0.0189902 0.0141247 0.0204998 0.0194916 0.0100699 0.0221424 
0.0205188 0.0138727 0.0205 0.0170941 0.0139186 0.0205 0.0235 0.0110612 0.0224746 
0.017535 0.0139799 0.0214139 0.0209437 0.0113279 0.0223079 0.0235 0.0140746 0.0214102 
0.0227552 0.0122277 0.0225024 0.00381662 0.0145756 0.0204999 0.00189197 0.0143632 0.0210004 
0.00445017 0.0153494 0.0205 0.00297125 0.0152785 0.0205 0.00222918 0.0162608 0.0205 
0.00602216 0.0155184 0.0212505 0.00140709 0.0156915 0.0205 0.000516271 0.0151124 0.0205 
[...]
POINT_DATA 2870
FIELD FieldData 7
id 1 2870 int
1 2 3 4 5 6 7 8 9 
10 11 12 13 14 15 16 17 18 
19 20 21 22 23 24 25 27 28 
29 31 32 33 34 36 37 38 40 
41 42 43 1724 1770 1665 1715 1926 1662 
1735 1762 2008 2110 2030 2181 1610 1881 1977 
1700 139 2188 102 2207 2269 1956 1682 1812 
2060 2077 2292 44 1633 1806 99 45 46 
47 48 49 50 51 52 53 54 55 
56 57 58 59 60 61 62 63 64 
66 67 68 69 70 71 72 75 65 
2063 2015 143 1828 1644 1941 2441 1608 2355 
2090 2263 2046 2268 2039 2130 1623 74 76 
77 78 79 81 82 83 84 85 86 
87 88 89 90 91 92 93 95 97 
182 1643 1663 1901 1650 2044 1612 187 2221 
1629 1979 2364 2071 2447 2462 2334 94 96 
35 26 100 101 103 104 105 106 107 
108 109 110 111 112 113 114 116 118 
119 122 124 125 126 128 129 130 131 
132 133 134 136 137 138 140 141 1822 
154 1865 1780 222 1934 120 1893 1655 1805 
1890 1970 2119 1739 2433 123 2342 2047 1888 
163 183 148 142 144 145 147 149 150 
151 152 153 155 156 158 159 160 164 
165 166 167 168 169 170 171 172 173 
174 175 176 177 179 180 184 1640 1732 
181 191 1614 192 1815 325 1676 1592 2095 
1831 1916 1929 201 1775 2223 2037 1920 1793 
162 1740 80 178 185 186 188 189 190 
193 194 196 197 198 199 200 202 203 
204 205 206 207 208 209 210 211 212 
213 214 215 216 217 218 219 221 324 
1626 1691 1684 1915 220 2005 1851 1835 2211 
1968 328 2149 326 330 2244 329 2289 332 
2213 117 121 223 224 225 226 227 228 
229 230 231 232 233 234 235 236 237 
238 239 240 241 242 243 244 245 246 
247 248 249 250 256 255 392 443 1846 
393 1615 259 395 1616 1802 411 390 444 
1636 432 261 1804 2055 1908 391 1784 146 
2106 2329 1937 1766 2215 2087 1971 302 2561 
2524 2113 161 1697 1855 252 254 257 258 
260 262 263 264 265 267 268 269 270 
271 272 273 274 275 276 277 278 280 
281 282 283 284 285 286 287 288 289 
290 291 292 293 294 295 296 297 298 
300 301 303 304 305 306 307 308 309 
310 311 312 314 315 316 317 319 320 
321 322 323 331 1603 1637 1721 461 318 
313 279 2191 465 1997 458 2002 1886 2180 
2218 2457 1729 327 333 334 336 337 338 
339 340 341 342 343 344 345 346 347 
348 349 350 351 352 353 354 355 356 
357 358 359 360 361 362 363 364 366 
367 368 369 370 371 373 374 376 377 
378 379 380 381 382 383 385 386 388 
1830 1972 526 375 1906 2136 527 2036 1866 
394 396 397 398 399 400 401 402 403 
404 405 406 407 408 409 410 412 413 
415 416 417 418 419 420 421 422 423 
424 426 427 428 429 430 431 433 434 
435 436 437 438 439 440 442 445 446 
447 450 453 454 455 456 594 629 1594 
522 463 1824 615 1857 1939 1917 605 606 
579 2076 2088 2129 589 1819 451 2357 1765 
448 457 459 460 462 464 466 467 468 
469 470 471 473 474 475 476 477 478 
479 480 481 482 483 484 485 486 487 
488 489 490 491 492 493 494 495 496 
497 498 499 501 502 503 504 505 506 
507 508 509 510 511 512 513 514 516 
517 518 519 520 523 1723 1708 1749 1978 
525 1837 521 1895 651 1704 2406 2177 656 
1750 2020 500 515 535 528 529 530 532 
533 534 536 538 539 540 541 542 543 
544 545 546 547 548 549 550 551 552 
553 554 555 556 557 558 559 560 561 
562 563 564 565 566 567 568 569 570 
571 572 573 574 575 576 578 1630 1746 
1951 1818 372 1752 1867 1976 537 531 2380 
577 2413 2469 580 581 582 583 584 585 
586 587 588 590 591 592 593 595 596 
597 598 599 600 601 602 603 604 607 
608 609 610 611 612 613 614 616 617 
618 620 622 623 624 625 626 627 628 
631 632 633 634 635 766 751 789 1659 
1618 1675 776 785 1787 1596 2038 636 2139 
2010 644 1622 1609 783 775 2120 753 621 
1648 1980 1810 681 1702 702 637 638 639 
640 641 642 643 645 646 647 648 649 
650 652 653 654 655 657 658 659 660 
661 662 663 664 665 666 668 669 670 
671 672 673 674 675 676 677 678 679 
680 682 683 684 685 686 687 688 689 
690 691 692 693 694 695 696 697 698 
699 700 704 1710 816 1678 1863 2184 1742 
2078 1791 2014 838 706 852 1646 2235 1931 
701 667 703 718 705 707 708 709 710 
711 712 713 714 715 716 717 719 720 
721 722 723 724 725 726 727 728 729 
730 731 733 734 735 736 737 739 740 
741 742 743 744 745 746 747 748 749 
920 2021 1690 1635 1944 2104 1773 1666 1911 
2115 2051 922 750 752 754 755 756 757 
758 759 760 761 762 763 764 765 767 
768 769 770 771 772 773 774 777 779 
780 781 782 786 787 790 791 792 793 
794 795 796 797 801 802 803 804 805 
806 807 808 809 810 811 815 1598 1705 
799 1747 1983 2040 954 2006 2167 788 1832 
778 2338 2303 784 814 817 818 819 820 
821 822 823 824 825 826 827 828 829 
830 831 832 833 834 835 836 837 839 
840 841 842 843 844 845 846 848 849 
851 853 855 856 857 858 859 860 861 
862 863 864 867 869 870 872 873 874 
876 877 1743 879 923 1856 1927 1010 881 
1681 993 878 1727 2253 866 880 882 883 
884 885 886 887 888 889 890 891 892 
893 894 895 896 897 898 899 900 901 
902 903 904 905 906 907 908 909 910 
911 912 913 914 915 916 917 918 919 
921 924 925 926 927 928 929 930 931 
932 933 934 935 937 1706 2151 2100 1786 
1756 2446 2056 1741 1049 1843 2295 812 974 
941 939 940 942 943 944 945 946 947 
948 949 950 951 952 953 955 956 957 
958 959 960 961 962 963 964 965 966 
967 968 969 970 971 972 973 975 976 
978 979 980 981 982 983 984 986 987 
988 1120 1129 1086 1789 989 1689 1720 1707 
1940 1672 2050 1632 1913 1825 1699 1790 1795 
1088 1026 2084 1651 2228 1953 2348 1639 1139 
990 992 994 995 997 998 999 1000 1001 
1002 1003 1004 1005 1006 1007 1008 1009 1011 
1012 1013 1015 1016 1017 1018 1019 1020 1021 
1022 1023 1024 1025 1027 1028 1029 1030 1031 
1032 1033 1034 1037 1038 1039 1040 1041 1042 
1043 1140 1688 1617 1880 1839 1774 1654 1889 
1969 1146 1712 1054 1785 2058 2081 2152 1035 
1811 1044 1045 1046 1047 1048 1050 1051 1052 
1053 1055 1056 1057 1058 1059 1060 1061 1062 
1064 1065 1066 1067 1068 1069 1070 1071 1072 
1073 1075 1076 1078 1079 1080 1081 1082 1083 
1084 1206 1858 1196 2031 2054 1656 1759 1694 
2162 1692 1205 1731 2321 2281 1085 1087 1089 
1090 1091 1094 1095 1096 1097 1098 1099 1100 
1101 1102 1103 1104 1105 1106 1107 1108 1109 
1110 1111 1112 1113 1114 1116 1117 1118 1119 
1121 1122 1124 1125 1126 1127 1128 1131 1132 
1136 1137 1138 1186 1162 1796 1166 1233 1184 
1725 1792 1660 1794 2165 1932 1249 2073 1234 
1130 1145 1172 1141 1142 1143 1144 1147 1148 
1149 1150 1151 1152 1154 1155 1156 1157 1158 
1159 1160 1161 1163 1164 1165 1167 1168 1169 
1170 1171 1173 1174 1175 1177 1179 1182 1183 
1185 1187 1188 1189 1190 1192 1194 1298 1228 
1761 1649 1722 1180 1459 1197 1922 1212 1178 
1223 2216 1221 1195 1198 1199 1200 1201 1202 
1203 1204 1207 1208 1209 1210 1211 1213 1214 
1215 1216 1218 1219 1220 1224 1225 1226 1227 
1229 1230 1232 1321 1323 1322 1309 1307 1317 
1318 1716 1315 1998 1356 1962 1674 1316 1987 
1733 1767 1898 1332 1312 1222 1910 1134 1133 
1235 1135 1236 1237 1238 1239 1240 1242 1243 
1244 1245 1246 1247 1248 1251 1252 1253 1255 
1259 1260 1262 1263 1264 1405 1280 1874 1875 
1283 1265 1364 1868 1685 1864 1417 1686 1657 
1814 1771 1776 1250 1683 1383 1286 1367 1294 
1261 1947 2308 2161 1268 1817 2232 2432 1258 
1903 1191 1695 1303 1347 1256 1278 1272 1274 
1266 1269 1270 1271 1273 1275 1276 1277 1279 
1281 1282 1284 1287 1288 1289 1290 1291 1292 
1293 1295 1296 1297 1299 1302 1304 1457 1816 
1838 2035 1876 1862 1799 1760 1717 2336 1921 
1418 2307 2227 1342 2548 1994 2494 2596 1421 
2219 1975 2150 2033 1923 1416 1306 1308 1310 
1313 1314 1319 1320 1324 1325 1326 1327 1328 
1329 1330 1331 1333 1334 1335 1336 1337 1338 
1339 1340 1341 1344 1345 1346 1348 1349 1350 
1351 1352 1354 1355 1357 1359 1360 1361 1525 
1677 1451 1492 1358 1779 1737 1981 1480 1909 
1624 1460 1462 1949 1442 1353 1530 2261 2481 
1477 2190 2305 1376 1254 1366 1368 1369 1370 
1371 1372 1373 1374 1375 1377 1378 1379 1380 
1381 1382 1384 1385 1386 1387 1388 1389 1390 
1391 1393 1395 1396 1397 1398 1399 1400 1401 
1402 1403 1404 1406 1407 1408 1409 1410 1413 
1415 1446 1430 1422 1873 1426 1579 1658 1900 
1669 1580 1930 1453 1577 1850 1772 1745 1583 
1392 2328 1581 2370 1411 1428 1300 1419 1429 
1431 1432 1433 1436 1437 1439 1455 1456 1829 
1849 1883 1778 1984 2082 2069 2159 2171 1458 
1440 2125 2091 1999 1781 2337 1425 2339 2153 
1628 1434 2260 1427 2176 2224 1448 2057 2495 
2301 1988 2013 2183 1475 1491 1508 1464 1362 
1466 1468 1469 1470 1471 1472 1473 1474 1476 
1478 1479 1481 1482 1483 1484 1485 1486 1487 
1488 1489 1490 1493 1494 1495 1496 1497 1498 
1499 1500 1501 1502 1503 1504 1505 1506 1507 
1509 1510 1513 1514 1516 1517 1518 1519 1520 
1521 1522 1524 1526 1527 1528 1529 1531 1536 
1537 1693 1709 1465 2102 1461 1948 1813 1730 
1445 1540 1993 2103 2032 1449 1424 2127 2145 
813 1535 1569 1542 1590 1541 1543 1544 1546 
1547 1548 1549 1550 1551 1552 1553 1554 1556 
1557 1558 1559 1560 1561 1562 1563 1564 1565 
1566 1567 1568 1570 1571 1572 1573 1574 1575 
1576 1578 1582 1584 1585 1586 1587 1589 1036 
1611 1680 1621 1620 1638 1703 1606 1887 1848 
1755 2016 1938 1827 2366 1918 2160 2730 1555 
1545 1925 977 1438 1447 1452 875 938 985 
991 996 1063 1074 1077 1092 1093 1115 1123 
1153 1176 1181 1193 1217 1241 1257 1267 1305 
1311 1343 1363 1365 1394 1412 1414 1454 1512 
1538 1539 1588 871 1597 1595 1450 1877 2064 
2229 1607 1958 1599 1973 2234 2275 1982 2098 
2257 2124 2233 936 1515 1511 1014 1523 1285 
1231 1463 1532 1534 30 39 73 98 115 
127 135 157 195 251 253 266 299 335 
365 384 387 389 425 441 449 452 472 
524 619 630 732 738 800 847 850 854 
865 868 1641 2000 1444 1757 1673 1701 1933 
1726 1854 1904 1435 1751 1661 2067 2217 2241 
2324 2330 2340 2400 2493 2503 2533 2557 2589 
2634 2653 2667 2729 2744 2755 2833 2840 2851 
2863 1613 1769 1872 2146 2362 2403 2318 2519 
2592 2598 2614 2635 2644 2242 2694 2709 2720 
2770 2780 2799 2584 2816 2848 2850 2028 2222 
2300 2332 2341 2466 2516 2583 2613 2618 2630 
2682 2072 2738 2774 2785 1963 2839 1696 2026 
2059 2158 2236 2277 2326 2396 2410 2428 2439 
2476 2478 2498 2539 2580 2665 2687 2787 2798 
1807 1652 1899 2049 2169 2198 2204 2243 2298 
2372 2384 2386 2398 2450 2468 2471 2535 2560 
2587 2633 2646 2655 2690 2691 2698 2702 2717 
2527 2752 2771 2813 2279 2860 1698 1919 1960 
1991 2137 2197 2378 2438 2443 2452 2463 2532 
2543 2554 2712 2766 2768 2776 2507 2846 1711 
1718 1845 1847 2117 2170 414 2346 2363 2389 
2133 2425 2523 2538 2581 2654 2677 2734 2778 
2861 2486 2526 1602 1842 1878 2041 2166 2185 
2202 2284 2319 2349 2353 2375 2399 2417 2421 
2549 2608 2636 2645 2724 2739 2754 2775 2434 
2793 2853 2856 2731 1719 1753 1823 1861 2083 
2107 2156 2187 2271 2285 2316 2379 2415 2442 
2455 2467 2472 2475 2489 2513 2518 2586 2163 
2676 2713 2716 2796 2809 2825 2827 2832 2837 
2487 1601 1748 1768 1986 2061 2203 2365 2382 
2112 2530 2559 2564 2325 2574 2604 2609 2045 
2710 2742 2756 2666 2387 1591 1800 1959 2121 
2230 2254 2262 2278 2333 2074 2423 2509 2591 
2603 2671 2168 2693 2762 2773 2806 2822 2836 
2118 1671 1833 1859 1884 1989 1996 2003 2089 
2144 2258 2280 2288 2314 2402 2411 2422 2451 
2497 2196 2522 2276 2588 2602 2611 2663 2688 
2706 2299 2736 2743 2764 2789 2808 2823 2826 
2830 2027 2194 1961 1957 1965 2017 2066 2108 
2132 2157 2189 2267 2297 2310 2323 2359 2385 
2436 2483 2612 2649 2701 2737 2749 2792 2843 
2847 2209 2335 2097 1687 1783 1788 1844 1891 
1924 2086 2105 2135 2143 2155 2193 2226 2391 
2408 2418 2445 2484 2496 2508 2544 2546 2558 
2565 2178 2622 2628 2650 2658 2669 2684 2708 
2719 2733 2745 2758 2812 2829 2510 1841 1950 
2009 2024 2128 2141 2205 2248 2265 2287 2094 
2414 2506 2537 2568 2606 2615 1604 2651 2657 
2680 2711 2718 2769 2828 798 1777 1896 1897 
1946 2019 2200 2225 2247 2351 2404 2431 2459 
2500 2562 2597 2641 2647 2695 2697 2779 2802 
1902 1642 1713 1801 1840 1914 1952 2034 2065 
2099 2101 1600 2256 2274 2373 2576 2577 2585 
2689 2715 2790 2791 2814 2821 2844 1882 1619 
1631 1653 1826 1907 1966 2085 2122 1992 2240 
2286 2304 2358 2360 2435 2460 2517 2566 2575 
2590 2616 2723 2761 2797 2801 2824 2092 1964 
1985 1995 2111 2147 2195 2220 2272 2283 2302 
2311 2407 2409 2449 2458 2490 2512 2534 2551 
2570 2572 2043 2623 2662 2212 2670 2678 2683 
2692 2795 2810 2352 1625 1738 1894 2007 2011 
2042 2238 2251 2306 2313 1912 1836 2376 2477 
2485 2541 2582 1809 2675 2048 2757 2782 2282 
2004 1885 1714 1744 2096 1301 2179 2199 1852 
2317 2390 2416 2595 2656 2206 2659 2661 2732 
2750 2781 2817 1955 1668 1764 1808 1820 2175 
2246 2259 2264 2356 2377 2388 2394 2062 2429 
2437 2504 2552 2553 2556 2142 2637 2673 2686 
2696 2751 2772 2842 2845 2852 2555 2350 1734 
1834 1860 1943 2023 2093 2116 2182 2201 2231 
2239 2392 2405 2492 2542 2454 2567 2109 2632 
2639 2643 2704 2765 1782 2465 2858 1936 2344 
1797 1821 1870 1954 1990 2018 2079 2123 2164 
2294 2371 2397 2419 2488 2491 2505 2540 2601 
1670 2668 2674 2811 2815 2569 2594 1728 2029 
2053 1627 2140 2172 2192 2250 2291 2347 2393 
2412 2621 2625 2629 2672 2777 2849 1892 2208 
2070 2022 2173 2186 2210 2249 2315 1905 2461 
2514 2528 2536 2571 2573 2578 2610 2624 2131 
2722 2725 2726 2740 2746 2748 2753 2807 2838 
2862 1667 1736 1533 1942 2012 2080 2255 2293 
2296 2480 2521 2617 2638 2714 2805 2835 2854 
2855 1605 1647 1679 1853 1420 1928 2075 2138 
2148 2245 2270 2369 2381 2424 2453 2456 2520 
2545 2607 2627 2648 2700 2728 2652 2803 2818 
2819 1869 2052 2134 2266 2327 2331 2354 2367 
2502 2547 2563 2599 2703 2760 2783 2804 2859 
1645 1467 1763 1593 2126 2174 2273 2312 2464 
2499 2501 2525 2529 2626 2631 2685 2699 2707 
2735 2747 2767 2794 2831 1754 1634 2068 2154 
2214 2309 2320 2361 2383 2448 2479 2482 2511 
2515 2531 2550 2593 2600 2620 2640 2664 2705 
2784 2834 2841 1935 2025 1443 1664 1871 2114 
2343 2345 2368 2374 2401 2426 2290 2605 2681 
1798 2741 2759 2786 2857 1974 2619 2444 2427 
2395 1879 1441 1803 1967 1758 1423 1945 2001 
2237 2252 2322 2420 2430 2440 2470 2473 2474 
2579 2642 2660 2679 2721 2727 2763 2788 2800 
2820 2864 2865 2866 2867 2868 2869 2870 
type 1 2870 int
1 1 1 1 1 1 1 1 1 
1 1 1 1 1 1 1 1 1 
1 1 1 1 1 1 1 1 1 
1 1 1 1 1 1 1 1 1 
1 1 1 1 1 1 1 1 1 
1 1 1 1 1 1 1 1 1 
1 1 1 1 1 1 1 1 1 
1 1 1 1 1 1 1 1 1 
1 1 1 1 1 1 1 1 1 
1 1 1 1 1 1 1 1 1 
1 1 1 1 1 1 1 1 1 
1 1 1 1 1 1 1 1 1 
1 1 1 1 1 1 1 1 1 
1 1 1 1 1 1 1 1 1 
1 1 1 1 1 1 1 1 1 
1 1 1 1 1 1 1 1 1 
1 1 1 1 1 1 1 1 1 
1 1 1 1 1 1 1 1 1 
1 1 1 1 1 1 1 1 1 
1 1 1 1 1 1 1 1 1 
1 1 1 1 1 1 1 1 1 
1 1 1 1 1 1 1 1 1 
1 1 1 1 1 1 1 1 1 
1 1 1 1 1 1 1 1 1 
1 1 1 1 1 1 1 1 1 
1 1 1 1 1 1 1 1 1 
1 1 1 1 1 1 1 1 1 
1 1 1 1 1 1 1 1 1 
1 1 1 1 1 1 1 1 1 
1 1 1 1 1 1 1 1 1 
1 1 1 1 1 1 1 1 1 
1 1 1 1 1 1 1 1 1 
1 1 1 1 1 1 1 1 1 
1 1 1 1 1 1 1 1 1 
1 1 1 1 1 1 1 1 1 
1 1 1 1 1 1 1 1 1 
1 1 1 1 1 1 1 1 1 
1 1 1 1 1 1 1 1 1 
1 1 1 1 1 1 1 1 1 
1 1 1 1 1 1 1 1 1 
1 1 1 1 1 1 1 1 1 
1 1 1 1 1 1 1 1 1 
1 1 1 1 1 1 1 1 1 
1 1 1 1 1 1 1 1 1 
1 1 1 1 1 1 1 1 1 
1 1 1 1 1 1 1 1 1 
1 1 1 1 1 1 1 1 1 
1 1 1 1 1 1 1 1 1 
1 1 1 1 1 1 1 1 1 
1 1 1 1 1 1 1 1 1 
1 1 1 1 1 1 1 1 1 
1 1 1 1 1 1 1 1 1 
1 1 1 1 1 1 1 1 1 
1 1 1 1 1 1 1 1 1 
1 1 1 1 1 1 1 1 1 
1 1 1 1 1 1 1 1 1 
1 1 1 1 1 1 1 1 1 
1 1 1 1 1 1 1 1 1 
1 1 1 1 1 1 1 1 1 
1 1 1 1 1 1 1 1 1 
1 1 1 1 1 1 1 1 1 
1 1 1 1 1 1 1 1 1 
1 1 1 1 1 1 1 1 1 
1 1 1 1 1 1 1 1 1 
1 1 1 1 1 1 1 1 1 
1 1 1 1 1 1 1 1 1 
1 1 1 1 1 1 1 1 1 
1 1 1 1 1 1 1 1 1 
1 1 1 1 1 1 1 1 1 
1 1 1 1 1 1 1 1 1 
1 1 1 1 1 1 1 1 1 
1 1 1 1 1 1 1 1 1 
1 1 1 1 1 1 1 1 1 
1 1 1 1 1 1 1 1 1 
1 1 1 1 1 1 1 1 1 
1 1 1 1 1 1 1 1 1 
1 1 1 1 1 1 1 1 1 
1 1 1 1 1 1 1 1 1 
1 1 1 1 1 1 1 1 1 
1 1 1 1 1 1 1 1 1 
1 1 1 1 1 1 1 1 1 
1 1 1 1 1 1 1 1 1 
1 1 1 1 1 1 1 1 1 
1 1 1 1 1 1 1 1 1 
1 1 1 1 1 1 1 1 1 
1 1 1 1 1 1 1 1 1 
1 1 1 1 1 1 1 1 1 
1 1 1 1 1 1 1 1 1 
1 1 1 1 1 1 1 1 1 
1 1 1 1 1 1 1 1 1 
1 1 1 1 1 1 1 1 1 
1 1 1 1 1 1 1 1 1 
1 1 1 1 1 1 1 1 1 
1 1 1 1 1 1 1 1 1 
1 1 1 1 1 1 1 1 1 
1 1 1 1 1 1 1 1 1 
1 1 1 1 1 1 1 1 1 
1 1 1 1 1 1 1 1 1 
1 1 1 1 1 1 1 1 1 
1 1 1 1 1 1 1 1 1 
1 1 1 1 1 1 1 1 1 
1 1 1 1 1 1 1 1 1 
1 1 1 1 1 1 1 1 1 
1 1 1 1 1 1 1 1 1 
1 1 1 1 1 1 1 1 1 
1 1 1 1 1 1 1 1 1 
1 1 1 1 1 1 1 1 1 
1 1 1 1 1 1 1 1 1 
1 1 1 1 1 1 1 1 1 
1 1 1 1 1 1 1 1 1 
1 1 1 1 1 1 1 1 1 
1 1 1 1 1 1 1 1 1 
1 1 1 1 1 1 1 1 1 
1 1 1 1 1 1 1 1 1 
1 1 1 1 1 1 1 1 1 
1 1 1 1 1 1 1 1 1 
1 1 1 1 1 1 1 1 1 
1 1 1 1 1 1 1 1 1 
1 1 1 1 1 1 1 1 1 
1 1 1 1 1 1 1 1 1 
1 1 1 1 1 1 1 1 1 
1 1 1 1 1 1 1 1 1 
1 1 1 1 1 1 1 1 1 
1 1 1 1 1 1 1 1 1 
1 1 1 1 1 1 1 1 1 
1 1 1 1 1 1 1 1 1 
1 1 1 1 1 1 1 1 1 
1 1 1 1 1 1 1 1 1 
1 1 1 1 1 1 1 1 1 
1 1 1 1 1 1 1 1 1 
1 1 1 1 1 1 1 1 1 
1 1 1 1 1 1 1 1 1 
1 1 1 1 1 1 1 1 1 
1 1 1 1 1 1 1 1 1 
1 1 1 1 1 1 1 1 1 
1 1 1 1 1 1 1 1 1 
1 1 1 1 1 1 1 1 1 
1 1 1 1 1 1 1 1 1 
1 1 1 1 1 1 1 1 1 
1 1 1 1 1 1 1 1 1 
1 1 1 1 1 1 1 1 1 
1 1 1 1 1 1 1 1 1 
1 1 1 1 1 1 1 1 1 
1 1 1 1 1 1 1 1 1 
1 1 1 1 1 1 1 1 1 
1 1 1 1 1 1 1 1 1 
1 1 1 1 1 1 1 1 1 
1 1 1 1 1 1 1 1 1 
1 1 1 1 1 1 1 1 1 
1 1 1 1 1 1 1 1 1 
1 1 1 1 1 1 1 1 1 
1 1 1 1 1 1 1 1 1 
1 1 1 1 1 1 1 1 1 
1 1 1 1 1 1 1 1 1 
1 1 1 1 1 1 1 1 1 
1 1 1 1 1 1 1 1 1 
1 1 1 1 1 1 1 1 1 
1 1 1 1 1 1 1 1 1 
1 1 1 1 1 1 1 1 1 
1 1 1 1 1 1 1 1 1 
1 1 1 1 1 1 1 1 1 
1 1 1 1 1 1 1 1 1 
1 1 1 1 1 1 1 1 1 
1 1 1 1 1 1 1 1 1 
1 1 1 1 1 1 1 1 1 
1 1 1 1 1 1 1 1 1 
1 1 1 1 1 1 1 1 1 
1 1 1 1 1 1 1 1 1 
1 1 1 1 1 1 1 1 1 
1 1 1 1 1 1 1 1 1 
1 1 1 1 1 1 1 1 1 
1 1 1 1 1 1 1 1 1 
1 1 1 1 1 1 1 1 1 
1 1 1 1 1 1 1 1 1 
1 1 1 1 1 1 1 1 1 
1 1 1 1 1 1 1 1 1 
1 1 1 1 1 1 1 1 1 
1 1 1 1 1 1 1 1 1 
1 1 1 1 1 1 1 1 1 
1 1 1 1 1 1 1 1 1 
1 1 1 1 1 1 1 1 1 
1 1 1 1 1 1 1 1 1 
1 1 1 1 1 1 1 1 1 
1 1 1 1 1 1 1 1 1 
1 1 1 1 1 1 1 1 1 
1 1 1 1 1 1 1 1 1 
1 1 1 1 1 1 1 1 1 
1 1 1 1 1 1 1 1 1 
1 1 1 1 1 1 1 1 1 
1 1 1 1 1 1 1 1 1 
1 1 1 1 1 1 1 1 1 
1 1 1 1 1 1 1 1 1 
1 1 1 1 1 1 1 1 1 
1 1 1 1 1 1 1 1 1 
1 1 1 1 1 1 1 1 1 
1 1 1 1 1 1 1 1 1 
1 1 1 1 1 1 1 1 1 
1 1 1 1 1 1 1 1 1 
1 1 1 1 1 1 1 1 1 
1 1 1 1 1 1 1 1 1 
1 1 1 1 1 1 1 1 1 
1 1 1 1 1 1 1 1 1 
1 1 1 1 1 1 1 1 1 
1 1 1 1 1 1 1 1 1 
1 1 1 1 1 1 1 1 1 
1 1 1 1 1 1 1 1 1 
1 1 1 1 1 1 1 1 1 
1 1 1 1 1 1 1 1 1 
1 1 1 1 1 1 1 1 1 
1 1 1 1 1 1 1 1 1 
1 1 1 1 1 1 1 1 1 
1 1 1 1 1 1 1 1 1 
1 1 1 1 1 1 1 1 1 
1 1 1 1 1 1 1 1 1 
1 1 1 1 1 1 1 1 1 
1 1 1 1 1 1 1 1 1 
1 1 1 1 1 1 1 1 1 
1 1 1 1 1 1 1 1 1 
1 1 1 1 1 1 1 1 1 
1 1 1 1 1 1 1 1 1 
1 1 1 1 1 1 1 1 1 
1 1 1 1 1 1 1 1 1 
1 1 1 1 1 1 1 1 1 
1 1 1 1 1 1 1 1 1 
1 1 1 1 1 1 1 1 1 
1 1 1 1 1 1 1 1 1 
1 1 1 1 1 1 1 1 1 
1 1 1 1 1 1 1 1 1 
1 1 1 1 1 1 1 1 1 
1 1 1 1 1 1 1 1 1 
1 1 1 1 1 1 1 1 1 
1 1 1 1 1 1 1 1 1 
1 1 1 1 1 1 1 1 1 
1 1 1 1 1 1 1 1 1 
1 1 1 1 1 1 1 1 1 
1 1 1 1 1 1 1 1 1 
1 1 1 1 1 1 1 1 1 
1 1 1 1 1 1 1 1 1 
1 1 1 1 1 1 1 1 1 
1 1 1 1 1 1 1 1 1 
1 1 1 1 1 1 1 1 1 
1 1 1 1 1 1 1 1 1 
1 1 1 1 1 1 1 1 1 
1 1 1 1 1 1 1 1 1 
1 1 1 1 1 1 1 1 1 
1 1 1 1 1 1 1 1 1 
1 1 1 1 1 1 1 1 1 
1 1 1 1 1 1 1 1 1 
1 1 1 1 1 1 1 1 1 
1 1 1 1 1 1 1 1 1 
1 1 1 1 1 1 1 1 1 
1 1 1 1 1 1 1 1 1 
1 1 1 1 1 1 1 1 1 
1 1 1 1 1 1 1 1 1 
1 1 1 1 1 1 1 1 1 
1 1 1 1 1 1 1 1 1 
1 1 1 1 1 1 1 1 1 
1 1 1 1 1 1 1 1 1 
1 1 1 1 1 1 1 1 1 
1 1 1 1 1 1 1 1 1 
1 1 1 1 1 1 1 1 1 
1 1 1 1 1 1 1 1 1 
1 1 1 1 1 1 1 1 1 
1 1 1 1 1 1 1 1 1 
1 1 1 1 1 1 1 1 1 
1 1 1 1 1 1 1 1 1 
1 1 1 1 1 1 1 1 1 
1 1 1 1 1 1 1 1 1 
1 1 1 1 1 1 1 1 1 
1 1 1 1 1 1 1 1 1 
1 1 1 1 1 1 1 1 1 
1 1 1 1 1 1 1 1 1 
1 1 1 1 1 1 1 1 1 
1 1 1 1 1 1 1 1 1 
1 1 1 1 1 1 1 1 1 
1 1 1 1 1 1 1 1 1 
1 1 1 1 1 1 1 1 1 
1 1 1 1 1 1 1 1 1 
1 1 1 1 1 1 1 1 1 
1 1 1 1 1 1 1 1 1 
1 1 1 1 1 1 1 1 1 
1 1 1 1 1 1 1 1 1 
1 1 1 1 1 1 1 1 1 
1 1 1 1 1 1 1 1 1 
1 1 1 1 1 1 1 1 1 
1 1 1 1 1 1 1 1 1 
1 1 1 1 1 1 1 1 1 
1 1 1 1 1 1 1 1 1 
1 1 1 1 1 1 1 1 1 
1 1 1 1 1 1 1 1 1 
1 1 1 1 1 1 1 1 1 
1 1 1 1 1 1 1 1 1 
1 1 1 1 1 1 1 1 1 
1 1 1 1 1 1 1 1 1 
1 1 1 1 1 1 1 1 1 
1 1 1 1 1 1 1 1 1 
1 1 1 1 1 1 1 1 1 
1 1 1 1 1 1 1 1 1 
1 1 1 1 1 1 1 1 1 
1 1 1 1 1 1 1 1 1 
1 1 1 1 1 1 1 1 1 
1 1 1 1 1 1 1 1 1 
1 1 1 1 1 1 1 1 1 
1 1 1 1 1 1 1 1 1 
1 1 1 1 1 1 1 1 1 
1 1 1 1 1 1 1 1 1 
1 1 1 1 1 1 1 1 1 
1 1 1 1 1 1 1 1 1 
1 1 1 1 1 1 1 1 1 
1 1 1 1 1 1 1 1 1 
1 1 1 1 1 1 1 1 1 
1 1 1 1 1 1 1 1 1 
1 1 1 1 1 1 1 1 1 
1 1 1 1 1 1 1 1 1 
1 1 1 1 1 1 1 1 1 
1 1 1 1 1 1 1 1 1 
1 1 1 1 1 1 1 1 1 
1 1 1 1 1 1 1 1 1 
1 1 1 1 1 1 1 1 
i 3 2870 int
0 0 0 0 0 0 0 0 0 
0 0 0 0 0 0 0 0 0 
0 0 0 0 0 0 0 0 0 
0 0 0 0 0 0 0 0 0 
0 0 0 0 0 0 0 0 0 
0 0 0 0 0 0 0 0 0 
0 0 0 0 0 0 0 0 0 
0 0 0 0 0 0 0 0 0 
0 0 0 0 0 0 0 0 0 
0 0 0 0 0 0 0 0 0 
0 0 0 0 0 0 0 0 0 
0 0 0 0 0 0 0 0 0 
0 0 0 0 0 0 0 0 0 
0 0 0 0 0 0 0 0 0 
0 0 0 0 0 0 0 0 0 