# vtk DataFile Version 4.0
Generated by LIGGGHTS
ASCII
DATASET POLYDATA
POINTS 1310 float
0.00683224 0.00406352 0.0220646 0.00245385 0.00150592 0.0214999 0.000503395 0.000909002 0.0205 
0.00650802 0.00160098 0.02075 0.00588293 0.00050627 0.0205 0.00427175 0.00185393 0.0205 
0.000514215 0.00195653 0.0205 0.00339582 0.00378843 0.0205 0.000523752 0.000525036 0.0217242 
0.00102705 0.00350485 0.0210123 0.00418969 0.00303495 0.0205 0.00388831 0.000506957 0.0205 
0.000633818 0.00486657 0.0205021 0.000503357 0.00586182 0.0206067 0.00702068 0.00618133 0.0205037 
0.00570879 0.00174972 0.0217066 0.00691957 0.00111362 0.0218384 0.00294289 0.00574626 0.0223787 
0.00101763 0.00671213 0.0204999 0.00595936 0.000599574 0.021987 0.00844116 0.00581812 0.0205208 
0.00819564 0.00207202 0.0207497 0.00861394 0.00690588 0.0215895 0.00902298 0.00307935 0.0205 
0.0127067 0.00150036 0.0205 0.0110045 0.0024907 0.0204999 0.014697 0.000751044 0.0207502 
0.0117124 0.00166923 0.0205103 0.0111233 0.000500141 0.0205 0.0131392 0.000502522 0.0205077 
0.0108218 0.00192525 0.0225062 0.0121239 0.000534493 0.0205 0.0100996 0.00050062 0.0205004 
0.00890435 0.000750178 0.0207714 0.0100147 0.00265281 0.0205 0.013706 0.00146897 0.0204997 
0.0104463 0.00154791 0.0211009 0.0106215 0.00344707 0.0205002 0.0114852 0.00513442 0.0205 
0.0112556 0.00637755 0.0208565 0.0102736 0.00299972 0.021402 0.0122386 0.00367534 0.0216539 
0.00940039 0.00186439 0.0204985 0.011521 0.00074841 0.0217709 0.0132899 0.00494314 0.0205 
0.00912627 0.00172682 0.0215213 0.00983931 0.0049971 0.0212512 0.0130046 0.00630998 0.0210512 
0.0145321 0.00537096 0.0207499 0.00977405 0.00234417 0.0219684 0.0138483 0.00404614 0.0205074 
0.015124 0.00458378 0.0215196 0.0148466 0.00280857 0.0212499 0.00825147 0.00180558 0.0221487 
0.0104227 0.00682712 0.0224417 0.00888447 0.00265562 0.0223028 0.0118392 0.00580796 0.0222805 
0.0101577 0.00069045 0.0222345 0.00889354 0.000511573 0.0222269 0.0161965 0.000749788 0.0207498 
0.02325 0.000750028 0.0207499 0.0223732 0.00318143 0.0205 0.0234964 0.00354966 0.0205 
0.0214207 0.00167069 0.0210009 0.02325 0.00463957 0.0219899 0.0232467 0.00226512 0.02075 
0.0214569 0.00399522 0.02075 0.0225076 0.00506647 0.0207535 0.0234989 0.00578744 0.0205002 
0.0202476 0.0029587 0.0207561 0.0171 0.00407798 0.0212499 0.018171 0.001525 0.021499 
0.0229954 0.00100102 0.0224629 0.0224052 0.00310656 0.0220335 0.0187261 0.00396008 0.0205003 
0.0192159 0.00496182 0.021506 0.0232258 0.00643493 0.0216692 0.0180537 0.00639607 0.0220099 
0.0194644 0.00330692 0.0220484 0.0209104 0.00401638 0.0221558 0.018077 0.00653543 0.02075 
0.0209404 0.00677685 0.0215 0.0228316 0.00672682 0.0205089 0.0031453 0.00798214 0.0205 
0.00615734 0.00801614 0.0205 0.00520164 0.0116476 0.0205 0.00421742 0.00890477 0.0209999 
0.00527406 0.0103244 0.0205002 0.00152305 0.00782702 0.0207498 0.00642631 0.011594 0.0207503 
0.0017924 0.00946647 0.0222662 0.00737588 0.00719695 0.0205 0.00438178 0.0109327 0.0205185 
0.000534051 0.0107421 0.0205 0.000500136 0.0082744 0.0213126 0.00573441 0.00906621 0.0205015 
0.000557158 0.0118173 0.0205 0.000502707 0.00723153 0.0211909 0.00417567 0.0105936 0.0214989 
0.00769759 0.00876062 0.0214811 0.00517347 0.0137964 0.0207499 0.00697469 0.0131822 0.0220031 
0.006475 0.010064 0.0207495 0.000737649 0.00760559 0.0223024 0.0051154 0.00957319 0.0221387 
0.00621328 0.0104156 0.021919 0.00474825 0.0122256 0.0216743 0.00232365 0.012915 0.0219992 
0.00557516 0.0084038 0.0214077 0.00663356 0.011244 0.0223116 0.00651037 0.00848031 0.021753 
0.00842871 0.0108884 0.0215011 0.0127112 0.0106435 0.0207566 0.0101364 0.00743898 0.0207666 
0.0156396 0.0105307 0.021 0.0123263 0.0120962 0.0207502 0.0111065 0.0122169 0.0205 
0.014896 0.0127038 0.0205 0.013823 0.011456 0.0205 0.0110347 0.00940693 0.0216158 
0.0126757 0.00787071 0.0217747 0.00804256 0.00806297 0.0205012 0.0106592 0.0113189 0.0205 
0.0144047 0.0116194 0.0214735 0.01571 0.0137884 0.0205 0.0148512 0.0117048 0.0205 
0.0115258 0.0124851 0.0216436 0.00960323 0.00856127 0.0205 0.00994351 0.0122124 0.0205 
0.0132713 0.0104049 0.022412 0.0155778 0.0077025 0.0219998 0.00848316 0.0135847 0.02075 
0.013593 0.0137522 0.0215969 0.0111903 0.0133229 0.0205 0.00999811 0.0136062 0.02075 
0.0111906 0.0137387 0.0214994 0.0152858 0.0117034 0.0223742 0.0119375 0.0139873 0.0204999 
0.0120006 0.0116084 0.022412 0.0215371 0.0084653 0.0205038 0.0229997 0.00839429 0.0209999 
0.018332 0.010741 0.0217503 0.0207384 0.0109564 0.0218477 0.0213854 0.00987637 0.0210247 
0.0175388 0.00809497 0.0204999 0.0203665 0.00841094 0.0204999 0.0192234 0.0081072 0.0205 
0.0229969 0.0110728 0.021 0.016283 0.0124245 0.021 0.0199201 0.00881638 0.0215947 
0.0201419 0.0112469 0.0205 0.0183688 0.00817473 0.0214365 0.0171554 0.00917688 0.0205 
0.0205397 0.0128214 0.0205 0.0213111 0.0116101 0.0207515 0.0232926 0.0124558 0.0205 
0.0234994 0.00972948 0.0214667 0.0219418 0.00852541 0.0220677 0.0228214 0.0125141 0.0220355 
0.0196479 0.0123565 0.0205 0.0221312 0.0128679 0.0207518 0.0230474 0.0137217 0.0205 
0.017285 0.0137659 0.0222009 0.0185114 0.0126175 0.020507 0.0235 0.0131449 0.0211945 
0.0182127 0.0134092 0.0219584 0.0227947 0.0137689 0.0220203 0.0186976 0.00712232 0.0222613 
0.00601004 0.0155429 0.0212491 0.00130921 0.0161858 0.0209999 0.00446402 0.0164633 0.0205233 
0.00233243 0.0151348 0.0205 0.00295947 0.0159474 0.0205082 0.000540683 0.0143457 0.0205 
0.007918 0.0152327 0.0205 0.000535462 0.0175571 0.0205292 0.00321669 0.0169804 0.0205018 
0.000500865 0.0152505 0.0219021 0.00731796 0.0170776 0.02075 0.000505892 0.019382 0.0205038 
0.00592247 0.0180049 0.02075 0.00181791 0.0184982 0.0212729 0.00725899 0.0143853 0.0205 
0.00381111 0.0157755 0.0210664 0.00633423 0.0172671 0.021672 0.00101798 0.0206859 0.0210508 
0.00796905 0.0193603 0.0214999 0.00385169 0.0201394 0.0212499 0.00413224 0.0176478 0.0218389 
0.00571462 0.019868 0.0217144 0.00500999 0.0191503 0.022114 0.00428403 0.0150447 0.0221425 
0.00975074 0.0160397 0.0220066 0.0155937 0.01489 0.0205 0.0112382 0.0147037 0.020501 
0.0129403 0.0164022 0.0212505 0.013972 0.0186797 0.0212499 0.0117693 0.0145978 0.0216909 
0.015713 0.0193397 0.0219834 0.0128554 0.0206375 0.0205 0.00907682 0.0179199 0.0205007 
0.0162257 0.0172376 0.0209999 0.0167195 0.0149604 0.0205 0.0177875 0.0168407 0.0205 
0.0176626 0.0146015 0.0205 0.0225627 0.0158105 0.0207598 0.0171671 0.0183413 0.0205 
0.0207372 0.0145567 0.0214999 0.0183762 0.0180118 0.02075 0.0234995 0.0146151 0.0205 
0.0233135 0.016785 0.0205 0.0229412 0.01847 0.02075 0.0224406 0.0173136 0.0205 
0.0181722 0.0162315 0.0214146 0.0216534 0.0187546 0.0205 0.0176317 0.0178513 0.0217554 
0.0226975 0.0197672 0.0208688 0.0234967 0.0141669 0.0214136 0.0189201 0.015365 0.0217594 
0.0234713 0.0204312 0.0205003 0.018215 0.0199232 0.0213949 0.0170508 0.0167202 0.0224539 
0.017088 0.0150523 0.0218927 0.0223773 0.0209915 0.0207522 0.00204017 0.023622 0.0205 
0.000502132 0.0226951 0.0205 0.000750276 0.0245623 0.02075 0.00157554 0.0237917 0.0217375 
0.00340967 0.0244766 0.0212499 0.00283024 0.022408 0.0207496 0.00600132 0.0211558 0.0209999 
0.00656564 0.0239588 0.0219998 0.00279402 0.0275917 0.0217499 0.000511269 0.0245063 0.0219791 
0.00261074 0.0215263 0.0221328 0.00885084 0.0234602 0.0205059 0.0129335 0.0264909 0.0205 
0.0127032 0.0246094 0.0205 0.0137818 0.0259033 0.0205 0.0155569 0.0237955 0.0209999 
0.00880128 0.0253148 0.0205119 0.00904123 0.0212281 0.02075 0.0107148 0.022055 0.0210692 
0.0119084 0.0259173 0.0214328 0.0128908 0.0242893 0.0217374 0.0095507 0.0232179 0.0212617 
0.0149428 0.0270996 0.0215883 0.0105603 0.0238885 0.0221504 0.0211161 0.0261524 0.0205939 
0.0196731 0.0271071 0.0206319 0.0223876 0.0231811 0.0214999 0.0182702 0.0263042 0.0205 
0.023332 0.027705 0.0205675 0.0194675 0.0275529 0.0219613 0.0193081 0.0227697 0.021726 
0.000516338 0.0308797 0.0205 0.00276343 0.0344718 0.0219998 0.00126637 0.0315554 0.0205 
0.00319318 0.0301807 0.02075 0.000815217 0.0327949 0.02075 0.00551552 0.0328807 0.0207664 
0.00664354 0.0333741 0.0205 0.0053672 0.0295672 0.0209999 0.00078687 0.0347829 0.020501 
0.00636415 0.0284785 0.0205 0.00463828 0.0318873 0.0217056 0.00736647 0.0288696 0.020573 
0.000504302 0.0339773 0.0210332 0.00730172 0.0325279 0.0205 0.00660476 0.0344181 0.0205349 
0.00722375 0.0309536 0.0214833 0.00558612 0.0286846 0.0223259 0.00902726 0.0313659 0.0206355 
0.0153287 0.0301282 0.0205 0.0116902 0.0318631 0.0205 0.00846415 0.0290955 0.0205 
0.0101753 0.0316853 0.0205205 0.0103222 0.0298605 0.022013 0.00802544 0.0339851 0.0216195 
0.0137241 0.0307136 0.0207502 0.0106139 0.0333183 0.0212557 0.014977 0.0326013 0.0214999 
0.00863535 0.0327242 0.0205 0.0131813 0.0313188 0.0217017 0.0214596 0.0287651 0.0212499 
0.0234936 0.0294323 0.0210284 0.0192196 0.0285033 0.02075 0.0174133 0.032636 0.0205401 
0.0215411 0.0348239 0.0209999 0.0234613 0.0315008 0.0205 0.0180249 0.0300689 0.0212495 
0.0182059 0.0350541 0.021084 0.0233624 0.0303064 0.0221413 0.0205413 0.0313356 0.0207979 
0.0187718 0.0287083 0.0223284 0.00624866 0.0363991 0.0217597 0.00102482 0.038957 0.02075 
0.00258887 0.0411425 0.0205 0.00164668 0.0404036 0.0205 0.00100777 0.0357592 0.0205002 
0.00274257 0.0373637 0.02075 0.000559342 0.0401194 0.0205 0.00195928 0.0419463 0.0205 
0.00260853 0.0392629 0.02075 0.00350094 0.0403977 0.0205 0.000836664 0.0373594 0.02075 
0.00685519 0.0381623 0.0205001 0.00105186 0.0393838 0.0223791 0.00491374 0.0424142 0.0206926 
0.000503798 0.0358907 0.0214882 0.00710647 0.0415067 0.0209014 0.00414043 0.0394494 0.0220275 
0.0122855 0.036011 0.02075 0.0091067 0.0368105 0.02075 0.00939136 0.041856 0.0205179 
0.011216 0.039225 0.0205 0.0104401 0.0379222 0.0209999 0.00952667 0.0406365 0.020788 
0.00822642 0.0391712 0.0207596 0.0144617 0.041197 0.0205 0.0157716 0.0371961 0.0205 
0.00890418 0.0379974 0.0222786 0.0110107 0.0365744 0.0205259 0.0101628 0.0356691 0.0207651 
0.0129751 0.0422587 0.0205027 0.0122236 0.0376368 0.0207527 0.0119601 0.0411122 0.0210195 
[...]
POINT_DATA 1310
FIELD FieldData 7
id 1 1310 int
324 291 368 784 32 241 815 448 300 
442 816 710 527 256 870 100 153 486 
722 864 228 561 392 490 199 395 474 
282 590 176 364 289 362 370 783 51 
233 217 636 171 549 126 307 676 209 
730 764 311 192 763 66 61 108 1195 
1197 868 581 89 954 178 161 159 204 
219 333 142 200 340 452 518 185 31 
123 273 113 544 577 652 290 281 190 
57 143 588 274 360 64 380 75 154 
98 121 427 13 390 879 137 503 1064 
1070 44 401 1166 587 1104 938 1234 323 
842 941 887 35 275 46 80 556 287 
714 865 756 318 891 686 975 189 10 
569 447 252 571 33 872 188 772 709 
1061 342 110 1028 319 6 293 735 308 
49 146 109 578 139 90 71 659 967 
130 41 231 279 693 725 697 330 78 
741 800 538 1236 812 853 439 174 737 
713 646 820 611 70 508 881 695 550 
1 529 1067 943 786 678 221 269 19 
1077 436 673 62 43 59 118 198 974 
582 717 1232 260 450 345 592 591 465 
350 719 272 628 42 747 523 813 787 
492 944 956 238 947 1216 1230 566 896 
482 12 700 600 1004 54 180 36 688 
1293 624 152 780 353 144 978 934 1212 
1233 915 1264 1292 1294 512 862 1020 982 
957 1113 1288 162 249 259 534 522 672 
348 831 535 952 337 1081 897 980 844 
991 1144 505 261 886 904 138 919 925 
861 471 984 1103 1192 557 1015 698 609 
990 304 1083 1145 909 1120 916 60 451 
433 386 366 680 519 668 247 733 1108 
615 554 1186 316 584 1276 640 91 309 
514 641 626 949 1018 1019 669 835 1134 
883 802 1033 1101 570 960 1278 1154 1003 
1043 1107 374 985 268 394 326 650 959 
848 993 996 1148 878 892 1227 856 1261 
986 579 242 814 423 347 543 855 3 
402 354 712 424 682 674 740 1242 1251 
1100 987 40 328 969 495 405 453 335 
533 403 371 1194 1201 1240 367 1297 305 
410 485 168 499 804 935 970 859 1097 
1155 963 1271 1289 1299 265 145 704 788 
122 866 525 567 487 357 705 230 637 
773 489 194 551 496 88 977 923 936 
1151 792 1260 1089 467 133 711 769 976 
653 8 776 702 415 431 573 73 470 
48 258 785 661 1102 1005 649 1146 1079 
306 690 1156 829 1031 777 1200 510 331 
781 907 94 1199 361 116 378 899 24 
421 446 244 379 165 381 105 619 218 
1076 574 1115 147 771 11 373 81 493 
760 1010 580 860 1127 1171 593 1218 863 
112 414 445 26 222 186 455 129 45 
179 313 477 564 595 707 851 694 806 
634 948 667 264 601 7 226 86 532 
314 660 96 1279 540 703 140 926 187 
736 103 325 1071 1125 720 1185 102 1283 
1160 778 1204 1126 271 344 38 696 84 
964 411 469 255 157 104 355 18 456 
478 225 39 117 645 14 541 589 250 
131 586 873 610 656 332 263 558 745 
76 243 299 629 167 351 210 149 69 
565 560 22 744 644 132 513 56 215 
53 363 284 869 229 468 651 559 20 
184 443 29 101 197 422 473 182 302 
288 87 125 79 195 435 173 277 206 
563 605 664 407 393 464 1013 630 679 
498 239 398 235 408 404 376 257 134 
418 358 52 141 163 9 329 93 481 
234 655 85 253 312 606 458 746 317 
385 158 940 596 388 466 151 28 599 
320 156 175 515 997 237 971 208 583 
929 548 472 798 839 836 1284 463 625 
494 684 774 155 858 501 942 598 148 
25 220 170 34 507 524 16 15 572 
663 845 97 895 369 613 1022 1065 1116 
5 604 958 723 759 459 365 160 17 
92 202 136 322 2 106 211 724 47 
115 372 334 77 631 841 536 164 1072 
989 585 801 1082 419 509 406 998 1001 
286 850 633 1066 731 488 212 979 824 
1190 823 627 742 685 1257 1085 1032 675 
399 826 1040 810 893 890 1080 1086 1096 
1118 213 874 1038 1225 1238 968 1122 30 
542 432 172 794 910 648 983 1012 677 
120 691 1138 425 1111 789 758 296 888 
911 972 1029 617 782 343 647 476 1060 
223 832 718 657 715 734 833 838 662 
1130 1164 1231 1056 1250 726 400 932 837 
898 639 770 1091 1021 1170 1189 1193 594 
1210 1229 1203 962 1253 1256 1287 1296 1298 
576 245 748 315 285 521 479 409 1110 
877 99 1053 1196 430 196 504 928 1247 
506 1198 946 597 1139 1024 1035 1078 1094 
1121 1128 1180 1208 749 1267 1285 1295 1184 
1243 1124 1105 1044 908 1048 1087 1106 1137 
1147 1176 1202 1219 1221 937 1017 1269 483 
338 412 638 1073 1168 1174 775 752 1084 
457 1275 1141 1290 1291 1143 1007 1041 553 
1249 1263 1136 1209 623 1205 1142 500 1016 
1090 1093 1149 1153 1181 1213 1224 1258 1270 
1273 1047 1000 701 621 236 765 1177 1179 
1191 1215 1245 1281 1301 809 901 912 924 
973 1025 1092 1131 1133 1167 602 1254 1265 
1011 1117 1026 1069 384 900 966 876 961 
889 927 981 1051 1062 1095 1152 1165 1268 
1036 945 762 545 462 608 607 603 620 
920 1030 1098 658 1161 950 811 885 930 
999 1023 1123 847 1068 939 738 917 670 
526 520 880 1049 1088 1135 1140 1188 1222 
1235 1099 1286 537 799 822 375 1214 1058 
852 933 382 807 397 37 1244 754 441 
1162 875 903 921 797 278 821 654 727 
1054 632 454 1220 1241 1055 124 687 356 
517 562 426 531 965 396 74 739 994 
931 706 341 884 346 327 671 689 728 
753 808 846 913 1009 1037 1169 1252 791 
55 547 437 193 444 349 1059 665 988 
95 267 528 922 894 766 767 251 681 
840 555 1173 1187 750 1228 1207 1274 1300 
1175 1277 1158 428 729 955 867 692 716 
1075 1150 1157 1183 1237 1246 1255 1262 834 
67 1109 828 992 902 502 416 803 857 
352 303 721 227 768 491 438 642 301 
150 793 914 1008 1045 1074 575 511 1280 
1282 1034 1163 854 475 614 708 270 795 
843 849 953 1050 618 201 383 790 1014 
254 1132 796 1057 817 699 827 1039 1046 
1182 1206 1211 1223 1226 1259 1266 1272 779 
1052 1112 413 882 181 191 461 643 616 
321 871 905 377 1129 266 1159 1178 1217 
1239 1248 276 539 568 295 951 1119 417 
1027 216 906 183 205 819 232 761 107 
732 757 4 203 50 283 119 635 207 
114 1002 1063 1006 818 128 995 82 830 
666 683 434 127 497 359 72 387 546 
262 622 420 292 23 298 805 825 516 
918 1042 552 1172 612 391 755 68 297 
484 530 480 214 440 65 248 83 63 
743 135 169 246 336 339 224 280 429 
449 111 58 177 294 310 240 389 21 
27 166 460 751 1114 1302 1303 1304 1305 
1306 1307 1308 1309 1310 
type 1 1310 int
1 1 1 1 1 1 1 1 1 
1 1 1 1 1 1 1 1 1 
1 1 1 1 1 1 1 1 1 
1 1 1 1 1 1 1 1 1 
1 1 1 1 1 1 1 1 1 
1 1 1 1 1 1 1 1 1 
1 1 1 1 1 1 1 1 1 
1 1 1 1 1 1 1 1 1 
1 1 1 1 1 1 1 1 1 
1 1 1 1 1 1 1 1 1 
1 1 1 1 1 1 1 1 1 
1 1 1 1 1 1 1 1 1 
1 1 1 1 1 1 1 1 1 
1 1 1 1 1 1 1 1 1 
1 1 1 1 1 1 1 1 1 
1 1 1 1 1 1 1 1 1 
1 1 1 1 1 1 1 1 1 
1 1 1 1 1 1 1 1 1 
1 1 1 1 1 1 1 1 1 
1 1 1 1 1 1 1 1 1 
1 1 1 1 1 1 1 1 1 
1 1 1 1 1 1 1 1 1 
1 1 1 1 1 1 1 1 1 
1 1 1 1 1 1 1 1 1 
1 1 1 1 1 1 1 1 1 
1 1 1 1 1 1 1 1 1 
1 1 1 1 1 1 1 1 1 
1 1 1 1 1 1 1 1 1 
1 1 1 1 1 1 1 1 1 
1 1 1 1 1 1 1 1 1 
1 1 1 1 1 1 1 1 1 
1 1 1 1 1 1 1 1 1 
1 1 1 1 1 1 1 1 1 
1 1 1 1 1 1 1 1 1 
1 1 1 1 1 1 1 1 1 
1 1 1 1 1 1 1 1 1 
1 1 1 1 1 1 1 1 1 
1 1 1 1 1 1 1 1 1 
1 1 1 1 1 1 1 1 1 
1 1 1 1 1 1 1 1 1 
1 1 1 1 1 1 1 1 1 
1 1 1 1 1 1 1 1 1 
1 1 1 1 1 1 1 1 1 
1 1 1 1 1 1 1 1 1 
1 1 1 1 1 1 1 1 1 
1 1 1 1 1 1 1 1 1 
1 1 1 1 1 1 1 1 1 
1 1 1 1 1 1 1 1 1 
1 1 1 1 1 1 1 1 1 
1 1 1 1 1 1 1 1 1 
1 1 1 1 1 1 1 1 1 
1 1 1 1 1 1 1 1 1 
1 1 1 1 1 1 1 1 1 
1 1 1 1 1 1 1 1 1 
1 1 1 1 1 1 1 1 1 
1 1 1 1 1 1 1 1 1 
1 1 1 1 1 1 1 1 1 
1 1 1 1 1 1 1 1 1 
1 1 1 1 1 1 1 1 1 
1 1 1 1 1 1 1 1 1 
1 1 1 1 1 1 1 1 1 
1 1 1 1 1 1 1 1 1 
1 1 1 1 1 1 1 1 1 
1 1 1 1 1 1 1 1 1 
1 1 1 1 1 1 1 1 1 
1 1 1 1 1 1 1 1 1 
1 1 1 1 1 1 1 1 1 
1 1 1 1 1 1 1 1 1 
1 1 1 1 1 1 1 1 1 
1 1 1 1 1 1 1 1 1 
1 1 1 1 1 1 1 1 1 
1 1 1 1 1 1 1 1 1 
1 1 1 1 1 1 1 1 1 
1 1 1 1 1 1 1 1 1 
1 1 1 1 1 1 1 1 1 
1 1 1 1 1 1 1 1 1 
1 1 1 1 1 1 1 1 1 
1 1 1 1 1 1 1 1 1 
1 1 1 1 1 1 1 1 1 
1 1 1 1 1 1 1 1 1 
1 1 1 1 1 1 1 1 1 
1 1 1 1 1 1 1 1 1 
1 1 1 1 1 1 1 1 1 
1 1 1 1 1 1 1 1 1 
1 1 1 1 1 1 1 1 1 
1 1 1 1 1 1 1 1 1 
1 1 1 1 1 1 1 1 1 
1 1 1 1 1 1 1 1 1 
1 1 1 1 1 1 1 1 1 
1 1 1 1 1 1 1 1 1 
1 1 1 1 1 1 1 1 1 
1 1 1 1 1 1 1 1 1 
1 1 1 1 1 1 1 1 1 
1 1 1 1 1 1 1 1 1 
1 1 1 1 1 1 1 1 1 
1 1 1 1 1 1 1 1 1 
1 1 1 1 1 1 1 1 1 
1 1 1 1 1 1 1 1 1 
1 1 1 1 1 1 1 1 1 
1 1 1 1 1 1 1 1 1 
1 1 1 1 1 1 1 1 1 
1 1 1 1 1 1 1 1 1 
1 1 1 1 1 1 1 1 1 
1 1 1 1 1 1 1 1 1 
1 1 1 1 1 1 1 1 1 
1 1 1 1 1 1 1 1 1 
1 1 1 1 1 1 1 1 1 
1 1 1 1 1 1 1 1 1 
1 1 1 1 1 1 1 1 1 
1 1 1 1 1 1 1 1 1 
1 1 1 1 1 1 1 1 1 
1 1 1 1 1 1 1 1 1 
1 1 1 1 1 1 1 1 1 
1 1 1 1 1 1 1 1 1 
1 1 1 1 1 1 1 1 1 
1 1 1 1 1 1 1 1 1 
1 1 1 1 1 1 1 1 1 
1 1 1 1 1 1 1 1 1 
1 1 1 1 1 1 1 1 1 
1 1 1 1 1 1 1 1 1 
1 1 1 1 1 1 1 1 1 
1 1 1 1 1 1 1 1 1 
1 1 1 1 1 1 1 1 1 
1 1 1 1 1 1 1 1 1 
1 1 1 1 1 1 1 1 1 
1 1 1 1 1 1 1 1 1 
1 1 1 1 1 1 1 1 1 
1 1 1 1 1 1 1 1 1 
1 1 1 1 1 1 1 1 1 
1 1 1 1 1 1 1 1 1 
1 1 1 1 1 1 1 1 1 
1 1 1 1 1 1 1 1 1 
1 1 1 1 1 1 1 1 1 
1 1 1 1 1 1 1 1 1 
1 1 1 1 1 1 1 1 1 
1 1 1 1 1 1 1 1 1 
1 1 1 1 1 1 1 1 1 
1 1 1 1 1 1 1 1 1 
1 1 1 1 1 1 1 1 1 
1 1 1 1 1 1 1 1 1 
1 1 1 1 1 1 1 1 1 
1 1 1 1 1 1 1 1 1 
1 1 1 1 1 1 1 1 1 
1 1 1 1 1 1 1 1 1 
1 1 1 1 1 1 1 1 1 
1 1 1 1 1 
i 3 1310 int
0 0 0 0 0 0 0 0 0 
0 0 0 0 0 0 0 0 0 
0 0 0 0 0 0 0 0 0 
0 0 0 0 0 0 0 0 0 
0 0 0 0 0 0 0 0 0 
0 0 0 0 0 0 0 0 0 
0 0 0 0 0 0 0 0 0 
0 0 0 0 0 0 0 0 0 
0 0 0 0 0 0 0 0 0 
0 0 0 0 0 0 0 0 0 
0 0 0 0 0 0 0 0 0 
0 0 0 0 0 0 0 0 0 
0 0 0 0 0 0 0 0 0 
0 0 0 0 0 0 0 0 0 
0 0 0 0 0 0 0 0 0 
0 0 0 0 0 0 0 0 0 
0 0 0 0 0 0 0 0 0 
0 0 0 0 0 0 0 0 0 
0 0 0 0 0 0 0 0 0 
0 0 0 0 0 0 0 0 0 
0 0 0 0 0 0 0 0 0 
0 0 0 0 0 0 0 0 0 
0 0 0 0 0 0 0 0 0 
0 0 0 0 0 0 0 0 0 
0 0 0 0 0 0 0 0 0 
0 0 0 0 0 0 0 0 0 
0 0 0 0 0 0 0 0 0 
0 0 0 0 0 0 0 0 0 
0 0 0 0 0 0 0 0 0 
0 0 0 0 0 0 0 0 0 
0 0 0 0 0 0 0 0 0 
0 0 0 0 0 0 0 0 0 
0 0 0 0 0 0 0 0 0 
0 0 0 0 0 0 0 0 0 
0 0 0 0 0 0 0 0 0 
0 0 0 0 0 0 0 0 0 
0 0 0 0 0 0 0 0 0 
0 0 0 0 0 0 0 0 0 
0 0 0 0 0 0 0 0 0 
0 0 0 0 0 0 0 0 0 
0 0 0 0 0 0 0 0 0 
0 0 0 0 0 0 0 0 0 
0 0 0 0 0 0 0 0 0 
0 0 0 0 0 0 0 0 0 
0 0 0 0 0 0 0 0 0 
0 0 0 0 0 0 0 0 0 
0 0 0 0 0 0 0 0 0 
0 0 0 0 0 0 0 0 0 
0 0 0 0 0 0 0 0 0 
0 0 0 0 0 0 0 0 0 
0 0 0 0 0 0 0 0 0 
0 0 0 0 0 0 0 0 0 
0 0 0 0 0 0 0 0 0 
0 0 0 0 0 0 0 0 0 
0 0 0 0 0 0 0 0 0 
0 0 0 0 0 0 0 0 0 
0 0 0 0 0 0 0 0 0 
0 0 0 0 0 0 0 0 0 
0 0 0 0 0 0 0 0 0 
0 0 0 0 0 0 0 0 0 
0 0 0 0 0 0 0 0 0 
0 0 0 0 0 0 0 0 0 
0 0 0 0 0 0 0 0 0 
0 0 0 0 0 0 0 0 0 
0 0 0 0 0 0 0 0 0 
0 0 0 0 0 0 0 0 0 
0 0 0 0 0 0 0 0 0 
0 0 0 0 0 0 0 0 0 
0 0 0 0 0 0 0 0 0 
0 0 0 0 0 0 0 0 0 
0 0 0 0 0 0 0 0 0 
0 0 0 0 0 0 0 0 0 
0 0 0 0 0 0 0 0 0 
0 0 0 0 0 0 0 0 0 
0 0 0 0 0 0 0 0 0 
0 0 0 0 0 0 0 0 0 
0 0 0 0 0 0 0 0 0 
0 0 0 0 0 0 0 0 0 
0 0 0 0 0 0 0 0 0 
0 0 0 0 0 0 0 0 0 
0 0 0 0 0 0 0 0 0 
0 0 0 0 0 0 0 0 0 
0 0 0 0 0 0 0 0 0 
0 0 0 0 0 0 0 0 0 
0 0 0 0 0 0 0 0 0 
0 0 0 0 0 0 0 0 0 
0 0 0 0 0 0 0 0 0 
0 0 0 0 0 0 0 0 0 
0 0 0 0 0 0 0 0 0 
0 0 0 0 0 0 0 0 0 
0 0 0 0 0 0 0 0 0 
0 0 0 0 0 0 0 0 0 
0 0 0 0 0 0 0 0 0 
0 0 0 0 0 0 0 0 0 
0 0 0 0 0 0 0 0 0 
0 0 0 0 0 0 0 0 0 
0 0 0 0 0 0 0 0 0 
0 0 0 0 0 0 0 0 0 
0 0 0 0 0 0 0 0 0 
0 0 0 0 0 0 0 0 0 
0 0 0 0 0 0 0 0 0 
0 0 0 0 0 0 0 0 0 
0 0 0 0 0 0 0 0 0 
0 0 0 0 0 0 0 0 0 
0 0 0 0 0 0 0 0 0 
0 0 0 0 0 0 0 0 0 
0 0 0 0 0 0 0 0 0 
0 0 0 0 0 0 0 0 0 
0 0 0 0 0 0 0 0 0 
0 0 0 0 0 0 0 0 0 
0 0 0 0 0 0 0 0 0 
0 0 0 0 0 0 0 0 0 
0 0 0 0 0 0 0 0 0 
0 0 0 0 0 0 0 0 0 
0 0 0 0 0 0 0 0 0 
0 0 0 0 0 0 0 0 0 
0 0 0 0 0 0 0 0 0 
0 0 0 0 0 0 0 0 0 
0 0 0 0 0 0 0 0 0 
0 0 0 0 0 0 0 0 0 
0 0 0 0 0 0 0 0 0 
0 0 0 0 0 0 0 0 0 
0 0 0 0 0 0 0 0 0 
0 0 0 0 0 0 0 0 0 
0 0 0 0 0 0 0 0 0 
0 0 0 0 0 0 0 0 0 
0 0 0 0 0 0 0 0 0 
0 0 0 0 0 0 0 0 0 
0 0 0 0 0 0 0 0 0 
0 0 0 0 0 0 0 0 0 
0 0 0 0 0 0 0 0 0 
0 0 0 0 0 0 0 0 0 
0 0 0 0 0 0 0 0 0 
0 0 0 0 0 0 0 0 0 
0 0 0 0 0 0 0 0 0 
0 0 0 0 0 0 0 0 0 
0 0 0 0 0 0 0 0 0 
0 0 0 0 0 0 0 0 0 
0 0 0 0 0 0 0 0 0 
0 0 0 0 0 0 0 0 0 
0 0 0 0 0 0 0 0 0 
0 0 0 0 0 0 0 0 0 
0 0 0 0 0 0 0 0 0 
0 0 0 0 0 0 0 0 0 
0 0 0 0 0 0 0 0 0 
0 0 0 0 0 0 0 0 0 
0 0 0 0 0 0 0 0 0 
0 0 0 0 0 0 0 0 0 
0 0 0 0 0 0 0 0 0 
0 0 0 0 0 0 0 0 0 
0 0 0 0 0 0 0 0 0 
0 0 0 0 0 0 0 0 0 
0 0 0 0 0 0 0 0 0 
0 0 0 0 0 0 0 0 0 
0 0 0 0 0 0 0 0 0 
0 0 0 0 0 0 0 0 0 
0 0 0 0 0 0 0 0 0 
0 0 0 0 0 0 0 0 0 
0 0 0 0 0 0 0 0 0 
0 0 0 0 0 0 0 0 0 
0 0 0 0 0 0 0 0 0 
0 0 0 0 0 0 0 0 0 
0 0 0 0 0 0 0 0 0 
0 0 0 0 0 0 0 0 0 
0 0 0 0 0 0 0 0 0 
0 0 0 0 0 0 0 0 0 
0 0 0 0 0 0 0 0 0 
0 0 0 0 0 0 0 0 0 
0 0 0 0 0 0 0 0 0 
0 0 0 0 0 0 0 0 0 
0 0 0 0 0 0 0 0 0 
0 0 0 0 0 0 0 0 0 
0 0 0 0 0 0 0 0 0 
0 0 0 0 0 0 0 0 0 
0 0 0 0 0 0 0 0 0 
0 0 0 0 0 0 0 0 0 
0 0 0 0 0 0 0 0 0 
0 0 0 0 0 0 0 0 0 
0 0 0 0 0 0 0 0 0 
0 0 0 0 0 0 0 0 0 
0 0 0 0 0 0 0 0 0 
0 0 0 0 0 0 0 0 0 
0 0 0 0 0 0 0 0 0 
0 0 0 0 0 0 0 0 0 
0 0 0 0 0 0 0 0 0 
0 0 0 0 0 0 0 0 0 
0 0 0 0 0 0 0 0 0 
0 0 0 0 0 0 0 0 0 
0 0 0 0 0 0 0 0 0 
0 0 0 0 0 0 0 0 0 
0 0 0 0 0 0 0 0 0 
0 0 0 0 0 0 0 0 0 
0 0 0 0 0 0 0 0 0 
0 0 0 0 0 0 0 0 0 
0 0 0 0 0 0 0 0 0 
0 0 0 0 0 0 0 0 0 
0 0 0 0 0 0 0 0 0 
0 0 0 0 0 0 0 0 0 
0 0 0 0 0 0 0 0 0 
0 0 0 0 0 0 0 0 0 
0 0 0 0 0 0 0 0 0 
0 0 0 0 0 0 0 0 0 
0 0 0 0 0 0 0 0 0 
0 0 0 0 0 0 0 0 0 
0 0 0 0 0 0 0 0 0 
0 0 0 0 0 0 0 0 0 
0 0 0 0 0 0 0 0 0 
0 0 0 0 0 0 0 0 0 
0 0 0 0 0 0 0 0 0 
0 0 0 0 0 0 0 0 0 
0 0 0 0 0 0 0 0 0 
0 0 0 0 0 0 0 0 0 
0 0 0 0 0 0 0 0 0 
0 0 0 0 0 0 0 0 0 
0 0 0 0 0 0 0 0 0 
0 0 0 0 0 0 0 0 0 
0 0 0 0 0 0 0 0 0 
0 0 0 0 0 0 0 0 0 
0 0 0 0 0 0 0 0 0 
0 0 0 0 0 0 0 0 0 
0 0 0 0 0 0 0 0 0 
0 0 0 0 0 0 0 0 0 
0 0 0 0 0 0 0 0 0 
0 0 0 0 0 0 0 0 0 
0 0 0 0 0 0 0 0 0 
0 0 0 0 0 0 0 0 0 
0 0 0 0 0 0 0 0 0 
0 0 0 0 0 0 0 0 0 
0 0 0 0 0 0 0 0 0 
0 0 0 0 0 0 0 0 0 
0 0 0 0 0 0 0 0 0 
0 0 0 0 0 0 0 0 0 
0 0 0 0 0 0 0 0 0 
0 0 0 0 0 0 0 0 0 
0 0 0 0 0 0 0 0 0 
0 0 0 0 0 0 0 0 0 
0 0 0 0 0 0 0 0 0 
0 0 0 0 0 0 0 0 0 
0 0 0 0 0 0 0 0 0 
0 0 0 0 0 0 0 0 0 
0 0 0 0 0 0 0 0 0 
0 0 0 0 0 0 0 0 0 
0 0 0 0 0 0 0 0 0 
0 0 0 0 0 0 0 0 0 
0 0 0 0 0 0 0 0 0 
0 0 0 0 0 0 0 0 0 
0 0 0 0 0 0 0 0 0 
0 0 0 0 0 0 0 0 0 
0 0 0 0 0 0 0 0 0 
0 0 0 0 0 0 0 0 0 
0 0 0 0 0 0 0 0 0 
0 0 0 0 0 0 0 0 0 
0 0 0 0 0 0 0 0 0 
0 0 0 0 0 0 0 0 0 
0 0 0 0 0 0 0 0 0 
0 0 0 0 0 0 0 0 0 
0 0 0 0 0 0 0 0 0 
0 0 0 0 0 0 0 0 0 
0 0 0 0 0 0 0 0 0 
0 0 0 0 0 0 0 0 0 
0 0 0 0 0 0 0 0 0 
0 0 0 0 0 0 0 0 0 
0 0 0 0 0 0 0 0 0 
0 0 0 0 0 0 0 0 0 
0 0 0 0 0 0 0 0 0 
0 0 0 0 0 0 0 0 0 
0 0 0 0 0 0 0 0 0 
0 0 0 0 0 0 0 0 0 
0 0 0 0 0 0 0 0 0 
0 0 0 0 0 0 0 0 0 
0 0 0 0 0 0 0 0 0 
0 0 0 0 0 0 0 0 0 
0 0 0 0 0 0 0 0 0 
0 0 0 0 0 0 0 0 0 
0 0 0 0 0 0 0 0 0 
0 0 0 0 0 0 0 0 0 
0 0 0 0 0 0 0 0 0 
0 0 0 0 0 0 0 0 0 
0 0 0 0 0 0 0 0 0 
0 0 0 0 0 0 0 0 0 
0 0 0 0 0 0 0 0 0 
0 0 0 0 0 0 0 0 0 
0 0 0 0 0 0 0 0 0 
0 0 0 0 0 0 0 0 0 
0 0 0 0 0 0 0 0 0 
0 0 0 0 0 0 0 0 0 
0 0 0 0 0 0 0 0 0 
0 0 0 0 0 0 0 0 0 
0 0 0 0 0 0 0 0 0 
0 0 0 0 0 0 0 0 0 
0 0 0 0 0 0 0 0 0 
0 0 0 0 0 0 0 0 0 
0 0 0 0 0 0 0 0 0 
0 0 0 0 0 0 0 0 0 
0 0 0 0 0 0 0 0 0 
0 0 0 0 0 0 0 0 0 
0 0 0 0 0 0 0 0 0 
0 0 0 0 0 0 0 0 0 
0 0 0 0 0 0 0 0 0 
0 0 0 0 0 0 0 0 0 
0 0 0 0 0 0 0 0 0 
0 0 0 0 0 0 0 0 0 
0 0 0 0 0 0 0 0 0 
0 0 0 0 0 0 0 0 0 
0 0 0 0 0 0 0 0 0 
0 0 0 0 0 0 0 0 0 
0 0 0 0 0 0 0 0 0 
0 0 0 0 0 0 0 0 0 
0 0 0 0 0 0 0 0 0 
0 0 0 0 0 0 0 0 0 
0 0 0 0 0 0 0 0 0 
0 0 0 0 0 0 0 0 0 
0 0 0 0 0 0 0 0 0 
0 0 0 0 0 0 0 0 0 
0 0 0 0 0 0 0 0 0 
0 0 0 0 0 0 0 0 0 
0 0 0 0 0 0 0 0 0 
0 0 0 0 0 0 0 0 0 
0 0 0 0 0 0 0 0 0 
0 0 0 0 0 0 0 0 0 
0 0 0 0 0 0 0 0 0 
0 0 0 0 0 0 0 0 0 
0 0 0 0 0 0 0 0 0 
0 0 0 0 0 0 0 0 0 
0 0 0 0 0 0 0 0 0 
0 0 0 0 0 0 0 0 0 
0 0 0 0 0 0 0 0 0 
0 0 0 0 0 0 0 0 0 
0 0 0 0 0 0 0 0 0 
0 0 0 0 0 0 0 0 0 
0 0 0 0 0 0 0 0 0 
0 0 0 0 0 0 0 0 0 
0 0 0 0 0 0 0 0 0 
0 0 0 0 0 0 0 0 0 
0 0 0 0 0 0 0 0 0 
0 0 0 0 0 0 0 0 0 
0 0 0 0 0 0 0 0 0 
0 0 0 0 0 0 0 0 0 
0 0 0 0 0 0 0 0 0 
0 0 0 0 0 0 0 0 0 
0 0 0 0 0 0 0 0 0 
0 0 0 0 0 0 0 0 0 
0 0 0 0 0 0 0 0 0 
0 0 0 0 0 0 0 0 0 
0 0 0 0 0 0 0 0 0 
0 0 0 0 0 0 0 0 0 
0 0 0 0 0 0 0 0 0 
0 0 0 0 0 0 0 0 0 
0 0 0 0 0 0 0 0 0 
0 0 0 0 0 0 0 0 0 
0 0 0 0 0 0 0 0 0 
0 0 0 0 0 0 0 0 0 
0 0 0 0 0 0 0 0 0 
0 0 0 0 0 0 0 0 0 
0 0 0 0 0 0 0 0 0 
0 0 0 0 0 0 0 0 0 
0 0 0 0 0 0 0 0 0 
0 0 0 0 0 0 0 0 0 
0 0 0 0 0 0 0 0 0 
0 0 0 0 0 0 0 0 0 
0 0 0 0 0 0 0 0 0 
0 0 0 0 0 0 0 0 0 
0 0 0 0 0 0 0 0 0 
0 0 0 0 0 0 0 0 0 
0 0 0 0 0 0 0 0 0 
0 0 0 0 0 0 0 0 0 
0 0 0 0 0 0 0 0 0 
0 0 0 0 0 0 0 0 0 
0 0 0 0 0 0 0 0 0 
0 0 0 0 0 0 0 0 0 
0 0 0 0 0 0 0 0 0 
0 0 0 0 0 0 0 0 0 
0 0 0 0 0 0 0 0 0 
0 0 0 0 0 0 0 0 0 
0 0 0 0 0 0 0 0 0 
0 0 0 0 0 0 0 0 0 
0 0 0 0 0 0 0 0 0 
0 0 0 0 0 0 0 0 0 
0 0 0 0 0 0 0 0 0 
0 0 0 0 0 0 0 0 0 
0 0 0 0 0 0 0 0 0 
0 0 0 0 0 0 0 0 0 
0 0 0 0 0 0 0 0 0 
0 0 0 0 0 0 0 0 0 
0 0 0 0 0 0 0 0 0 
0 0 0 0 0 0 0 0 0 
0 0 0 0 0 0 0 0 0 
0 0 0 0 0 0 0 0 0 
0 0 0 0 0 0 0 0 0 
0 0 0 0 0 0 0 0 0 
0 0 0 0 0 0 0 0 0 
0 0 0 0 0 0 0 0 0 
0 0 0 0 0 0 0 0 0 
0 0 0 0 0 0 0 0 0 
0 0 0 0 0 0 0 0 0 
0 0 0 0 0 0 0 0 0 
0 0 0 0 0 0 0 0 0 
0 0 0 0 0 0 0 0 0 
0 0 0 0 0 0 0 0 0 
0 0 0 0 0 0 0 0 0 
0 0 0 0 0 0 0 0 0 
0 0 0 0 0 0 0 0 0 
0 0 0 0 0 0 0 0 0 
0 0 0 0 0 0 0 0 0 
0 0 0 0 0 0 0 0 0 
0 0 0 0 0 0 0 0 0 
0 0 0 0 0 0 0 0 0 
0 0 0 0 0 0 0 0 0 
0 0 0 0 0 0 0 0 0 
0 0 0 0 0 0 0 0 0 
0 0 0 0 0 0 0 0 0 
0 0 0 0 0 0 0 0 0 
0 0 0 0 0 0 0 0 0 
0 0 0 0 0 0 0 0 0 
0 0 0 0 0 0 0 0 0 
0 0 0 0 0 0 0 0 0 
0 0 0 0 0 0 0 0 0 
0 0 0 0 0 0 0 0 0 
0 0 0 0 0 0 0 0 0 
0 0 0 0 0 0 0 0 0 
0 0 0 0 0 0 0 0 0 
0 0 0 0 0 0 0 0 0 
0 0 0 0 0 0 0 0 0 
0 0 0 0 0 0 0 0 0 
0 0 0 0 0 0 0 0 0 
0 0 0 0 0 0 0 0 0 
0 0 0 0 0 0 0 0 0 
0 0 0 0 0 0 0 0 0 
0 0 0 0 0 0 0 0 0 
0 0 0 0 0 0 0 0 0 
0 0 0 0 0 0 0 0 0 
0 0 0 0 0 0 0 0 0 
0 0 0 0 0 0 0 0 0 
0 0 0 0 0 0 0 0 0 
0 0 0 0 0 0 0 0 0 
0 0 0 0 0 0 0 0 0 
0 0 0 0 0 0 
v 3 1310 double
1.02141 -0.446579 0.442059 0.958715 0.0235168 0.0192603 0.0154362 -1.6789 1.32097e-11 
-0.558745 -0.0514931 7.37989e-05 -1.17167 0.0260479 3.1542e-11 -0.688817 0.50701 1.29369e-12 
0.0517562 -1.50716 2.42091e-11 0.698516 0.298661 -2.8038e-11 0.130681 0.106381 2.38313 
0.235017 -0.901917 0.127637 -0.219722 0.786901 1.29369e-12 -1.61198 0.00240402 -2.34549e-11 
-0.246865 -0.859659 0.0409675 -0.21658 -1.21809 0.600439 -1.30459 -0.468364 -0.374604 
-0.961392 -0.207196 -0.297175 -0.313634 -0.597376 -0.271774 0.673991 -1.08672 -0.171575 
0.566616 -1.64914 -0.299846 -1.51347 0.166441 -2.22249 0.448655 -1.56783 0.125499 
-0.412353 -1.21732 -0.0473314 -0.241176 -0.199706 -0.871445 0.193584 1.00214 -2.62119e-11 
-0.69915 0.0327673 -0.01136 -0.0916638 1.12714 -0.0342122 -1.51893 -0.179993 0.0837137 
-0.849662 -0.706187 -0.0734208 1.5371 0.00111613 -4.23736e-06 1.66617 0.0191047 -0.0157798 
0.802916 0.0579243 0.365454 1.54898 -0.0213604 6.44467e-11 1.86835 0.0735446 0.0403631 
1.77635 0.0479068 0.0951775 0.58044 0.497109 0.00596142 -1.47614 0.131533 -0.06106 
0.115385 1.4673 0.624595 -0.53189 1.40759 -0.256967 0.742167 1.5643 -0.000514793 
0.164198 2.28667 -0.626732 -0.484547 0.204582 0.509861 -0.588208 0.851629 -0.0240306 
0.0930757 0.779071 0.0837195 -0.679355 -0.0511097 0.149861 -0.54463 0.913679 0.00558796 
0.638931 -1.26028 0.524678 -0.0401509 2.28288 0.0215087 0.211495 1.03619 0.134241 
-0.51902 0.274615 0.00868563 0.495615 -0.825557 0.229087 -0.341285 0.492171 0.0304402 
-0.163509 0.597302 0.0966114 -0.515225 0.391943 1.13217e-05 -0.223933 -0.874325 -0.721987 
-0.778906 0.524113 0.61162 0.399311 -1.42689 0.700878 -0.765708 1.11401 -0.698523 
0.456079 -0.379513 -1.95026 -1.37967 0.116729 -3.43815 -1.5697 0.0238582 0.0318461 
0.000114112 -0.000727235 -0.000837734 -0.000382214 -0.349079 0.000178456 -0.000125541 0.091409 1.77928e-11 
0.211834 -1.39717 -0.00291501 -0.00175428 -0.999606 0.183819 -0.0141011 0.0633835 -1.3956e-11 
-0.493694 -0.853753 -8.29924e-05 0.0501072 -1.33852 -0.0402102 -0.0580869 -1.01505 0.00223879 
0.955815 -0.386044 -0.0993546 -1.00566 0.225531 -0.000624061 -1.50806 -0.105688 0.0536088 
-0.0466381 0.00176351 -0.0118832 -0.64977 -0.375467 -0.305501 -0.990801 -1.13409 -0.00745189 
-0.739099 -0.269259 -0.890967 -0.0314528 -0.524385 0.0631539 -0.622804 -0.553544 -0.803972 
-0.537245 0.100541 -1.00711 -0.219837 0.457587 0.189862 -0.621716 -0.873557 2.99292e-11 
-0.600291 -0.331651 -0.00321412 0.0165278 -0.171427 0.0786922 0.383063 -0.350982 -4.96878e-06 
0.369406 -1.34845 -1.45615e-12 -1.12973 -0.567575 2.05347e-05 0.318845 -0.26645 -0.000560804 
-0.682703 0.222457 -0.00407613 -0.0279804 -1.34222 0.0267896 -1.09419 -0.585898 -0.0653797 
0.988786 -2.50082 1.13006 -0.198096 -0.357037 1.40079e-11 1.00117 1.00453 0.0122301 
0.0855433 -2.36316 5.87677e-12 0.108684 -1.39007 0.76103 0.1685 -1.37653 0.01297 
0.149245 -2.16535 6.01275e-11 0.105968 -2.53498 0.822847 0.794432 0.386535 0.126956 
-0.31435 -0.71316 0.0514183 -0.991714 -2.07813 0.0186769 -0.523184 -0.00774821 -0.402889 
-0.979459 -0.391731 -0.137397 -0.10061 -2.98389 0.761042 2.78663 -0.549424 -0.575891 
-0.816189 -0.286757 -0.634207 0 0 -0.492683 0.745803 -2.50118 0.0441379 