# vtk DataFile Version 4.0
Generated by LIGGGHTS
ASCII
DATASET POLYDATA
POINTS 1509 float
0.00770607 0.0037971 0.0219999 0.00268898 0.00150045 0.0214999 0.000530489 0.000604876 0.0205 
0.00547928 0.00238746 0.0208006 0.00527373 0.000506337 0.0205189 0.00426146 0.00225525 0.0205003 
0.000652438 0.00165216 0.0205 0.00370719 0.00308775 0.0205 0.000504141 0.000512428 0.0214969 
0.00100016 0.00327537 0.0209999 0.0051104 0.00361114 0.0205024 0.00426668 0.00051068 0.0205 
0.000500449 0.00460229 0.0205 0.000532847 0.00558999 0.0206678 0.00762263 0.00579468 0.0204996 
0.00464936 0.00187868 0.0216144 0.00517595 0.00103235 0.0215219 0.00370504 0.00520951 0.0222495 
0.0015205 0.00521571 0.0205 0.00437929 0.000504335 0.0218963 0.000589154 0.00522401 0.0218577 
0.00661907 0.00139955 0.02075 0.00605769 0.000506459 0.0215114 0.00640631 0.00651511 0.0210001 
0.00720414 0.000511006 0.0214062 0.00780013 0.00678816 0.0205017 0.00140013 0.00649487 0.02075 
0.00778637 0.00130556 0.0218225 0.000530497 0.00673734 0.0216154 0.00693333 0.00615148 0.0224237 
0.00879564 0.00669363 0.0205 0.00860167 0.00559216 0.0205 0.00971526 0.00398477 0.0205 
0.0120313 0.00198656 0.0205009 0.0112492 0.00261306 0.0205 0.0139437 0.000760484 0.0207523 
0.0111523 0.00150942 0.0205 0.0107197 0.000505092 0.0205011 0.0127477 0.000499746 0.0204996 
0.0117486 0.000641327 0.0205 0.00971749 0.000504078 0.0205038 0.00823482 0.000851222 0.0207492 
0.010613 0.00338477 0.0205 0.0129991 0.00228389 0.0205 0.00994756 0.00173295 0.0207497 
0.0106397 0.00438594 0.0205 0.0118211 0.00570586 0.0205 0.0101356 0.00407849 0.0214108 
0.0122546 0.00406233 0.0216374 0.00870915 0.00199458 0.0204997 0.0105041 0.000757905 0.0217442 
0.0134723 0.0051693 0.0205002 0.00889961 0.00167652 0.0214281 0.0101515 0.00588716 0.0212572 
0.0133471 0.00656416 0.0210455 0.0148279 0.00568183 0.0207494 0.00970251 0.00297057 0.0205007 
0.0138949 0.00426209 0.0205 0.0145829 0.00464945 0.02144 0.0147244 0.00291558 0.0212499 
0.0118268 0.00655042 0.0221608 0.00924409 0.000502231 0.0213983 0.0124186 0.00125202 0.0220444 
0.0155233 0.000760937 0.02075 0.0103383 0.00288012 0.0217642 0.011694 0.00705356 0.0207495 
0.0232491 0.000750313 0.0207498 0.0226725 0.00338524 0.0204998 0.0235001 0.00394644 0.0205 
0.0215351 0.00100288 0.0210011 0.0232501 0.00446273 0.0217898 0.0232496 0.00225144 0.02075 
0.020958 0.0036041 0.0207499 0.0221699 0.00452803 0.02075 0.0235 0.00494642 0.0205028 
0.0203182 0.00224743 0.02075 0.0164941 0.00469742 0.0212496 0.017421 0.00171792 0.0214999 
0.0229384 0.00105824 0.0224441 0.0221917 0.00307261 0.0218855 0.0178532 0.00361728 0.0205 
0.018846 0.0049599 0.0209999 0.0232355 0.00587777 0.0212938 0.0178363 0.00564873 0.0218799 
0.019071 0.00320453 0.0207553 0.0206358 0.00411082 0.0221245 0.0176744 0.00629248 0.02075 
0.0209085 0.00628088 0.0215006 0.0226907 0.00668085 0.0205019 0.0189507 0.0065191 0.0206659 
0.0224031 0.00522765 0.0223112 0.0184044 0.00671237 0.0222713 0.0033916 0.00739625 0.0205 
0.0065363 0.0135488 0.0205 0.00490031 0.00812064 0.0205 0.00601908 0.0102516 0.02075 
0.00518194 0.00996411 0.0216366 0.000623755 0.00812335 0.0205 0.00724524 0.00765395 0.0205012 
0.000729697 0.00942139 0.0205 0.00489409 0.0119292 0.0207507 0.00639846 0.012296 0.0220178 
0.00659994 0.00846507 0.0212047 0.00523864 0.0109757 0.0214975 0.0027451 0.01064 0.0219998 
0.00703214 0.00713612 0.0222497 0.000637407 0.0106852 0.0205 0.00768031 0.0135051 0.0205 
0.00223239 0.00870723 0.0204998 0.00220026 0.0125656 0.0205 0.000537131 0.0118202 0.0218176 
0.00463284 0.0123378 0.0221903 0.003026 0.0131296 0.0205 0.00383883 0.0132368 0.0214435 
0.00100029 0.0132802 0.021047 0.00772091 0.00857448 0.0205 0.00795955 0.00799997 0.0216908 
0.00380223 0.0140985 0.0205071 0.00824371 0.00770566 0.0205 0.00815688 0.0102362 0.0215411 
0.0131148 0.00979036 0.0207508 0.00945491 0.00770871 0.020812 0.0158382 0.0107348 0.0209999 
0.0123509 0.0111309 0.0207882 0.0111609 0.0108264 0.0205 0.0154783 0.0121171 0.0205 
0.0135517 0.0109374 0.0205 0.0110943 0.00908747 0.0214998 0.0131042 0.00815129 0.0218831 
0.00986298 0.0103056 0.0204999 0.0144037 0.0108836 0.0214189 0.0145192 0.0112603 0.0204999 
0.0109167 0.0114146 0.0214314 0.009532 0.0112493 0.0205001 0.0158463 0.00790937 0.0220194 
0.00849412 0.0123326 0.02075 0.013849 0.0128574 0.0214997 0.0114441 0.0119422 0.0205 
0.0102557 0.0122372 0.0207517 0.0113755 0.0126714 0.0211908 0.0158226 0.0119634 0.0222476 
0.0121151 0.0127978 0.0205 0.0116243 0.0110644 0.0224354 0.0100678 0.0108317 0.0215474 
0.0146814 0.0101213 0.0220036 0.0111045 0.0133487 0.0204999 0.012089 0.0137992 0.0206247 
0.0133129 0.0105866 0.0224046 0.0117575 0.0130004 0.0223398 0.0105307 0.0120902 0.0224855 
0.0163599 0.0140822 0.0205 0.0216018 0.0078668 0.0204995 0.0230004 0.00806188 0.0210042 
0.0184791 0.0106976 0.021785 0.0207272 0.0106267 0.0217261 0.0211389 0.00920124 0.0210032 
0.0178512 0.00860845 0.0205001 0.0204581 0.00795743 0.0205 0.0195183 0.00752685 0.0205 
0.0229979 0.0100616 0.0209997 0.0167888 0.0127193 0.0209998 0.0198002 0.0082375 0.0215875 
0.0202887 0.0103296 0.0204998 0.0184547 0.00773116 0.0211555 0.0171979 0.00936586 0.0205006 
0.0211415 0.0122681 0.0205 0.0214604 0.0109024 0.0207499 0.0234845 0.0115607 0.0205 
0.0234996 0.00904976 0.0220182 0.021735 0.00807756 0.0218126 0.0232502 0.011461 0.0220194 
0.0202029 0.0113829 0.0205 0.0223604 0.0121022 0.02075 0.0230233 0.0131516 0.0205 
0.017819 0.0138 0.0215073 0.0201714 0.012671 0.0205 0.0235002 0.0124924 0.021082 
0.0194251 0.0129516 0.0212332 0.0230391 0.0128378 0.0219019 0.0234899 0.0136445 0.0212728 
0.0183985 0.0129552 0.0214518 0.0182022 0.0126565 0.0205 0.0168093 0.0139825 0.0223108 
0.0218035 0.0102876 0.0222648 0.017639 0.0138703 0.0204997 0.0188145 0.0135051 0.0206376 
0.0198011 0.0136286 0.02051 0.00596586 0.0150199 0.0212584 0.00237101 0.0142974 0.0205 
0.00747286 0.0145368 0.0205 0.000499941 0.0150506 0.0205 0.00142736 0.0146585 0.0205 
0.00766993 0.0162512 0.02075 0.000671239 0.0192012 0.0205 0.0063035 0.0169252 0.0207499 
0.00125074 0.0171786 0.0212496 0.00768998 0.0170762 0.0218946 0.00420945 0.019299 0.0212499 
0.00409584 0.0167811 0.0212499 0.00513965 0.0179759 0.0205062 0.00638218 0.0186744 0.0210049 
0.00504952 0.0208244 0.0216084 0.00409951 0.0145561 0.0213663 0.00552147 0.0185188 0.0222355 
0.00303776 0.0210292 0.02075 0.00262831 0.0210914 0.0219293 0.0077203 0.0211734 0.0220057 
0.0094386 0.0181691 0.0215122 0.00950645 0.0145959 0.0219994 0.0126092 0.0153976 0.0212499 
0.0136814 0.0178146 0.0212524 0.0155278 0.0174463 0.0221409 0.0117365 0.019067 0.0206726 
0.00885797 0.0165463 0.0204994 0.0109855 0.0200771 0.0207859 0.0114593 0.0168404 0.0205 
0.0111606 0.0182679 0.0205005 0.0119561 0.0178686 0.0209603 0.0116401 0.0171718 0.0222511 
0.0119404 0.0194145 0.021588 0.00971119 0.020823 0.0205 0.0139574 0.0197811 0.0218973 
0.0234992 0.0142955 0.0205 0.016048 0.0150401 0.0205 0.0163765 0.016415 0.0210056 
0.0185021 0.0144715 0.0205 0.0232329 0.0154953 0.02075 0.0175601 0.017372 0.0205 
0.0214774 0.0141753 0.0215045 0.0186251 0.0157074 0.0207583 0.0234614 0.0168135 0.0205 
0.0232326 0.0180138 0.0207872 0.0219891 0.0158596 0.0205 0.0217012 0.0168625 0.0205 
0.0183483 0.0166022 0.0215925 0.0221914 0.0186825 0.0205 0.0234944 0.0192601 0.0205 
0.0165338 0.0182689 0.0207105 0.0174906 0.0158503 0.0222848 0.0171772 0.0148446 0.0211322 
0.0224118 0.0198954 0.02075 0.0223859 0.016696 0.0217099 0.0193036 0.0176904 0.0210761 
0.0207218 0.0212606 0.0205324 0.0233601 0.0162088 0.0217959 0.0186405 0.0141861 0.0220437 
0.0197537 0.0151441 0.0211691 0.0215119 0.0180079 0.0218445 0.0197225 0.0148146 0.0222385 
0.0210616 0.0204731 0.0224585 0.0190196 0.0191864 0.0210446 0.00101464 0.0213255 0.0210005 
0.00327575 0.0223711 0.0205 0.000502688 0.0230386 0.0205 0.000915485 0.0244627 0.02075 
0.00183239 0.0228511 0.0207494 0.00477663 0.0230583 0.0212499 0.00305173 0.025963 0.0217536 
0.000500341 0.0217045 0.0224528 0.00545865 0.0266489 0.0205 0.00701406 0.026123 0.0205054 
0.00222872 0.0240054 0.0210134 0.00615691 0.027909 0.0205028 0.00634777 0.0251198 0.0209464 
0.00473816 0.0280011 0.0210004 0.00504565 0.0283283 0.0224527 0.013347 0.0268963 0.0205 
0.0124455 0.0244924 0.0204999 0.0133822 0.0248421 0.0205 0.015411 0.0228582 0.0213962 
0.00901178 0.0256082 0.0205 0.0123141 0.0259155 0.0210011 0.0104011 0.0224167 0.0212562 
0.0150489 0.0270342 0.0207553 0.0105603 0.0238885 0.0213989 0.0155598 0.0259214 0.0205 
0.0089395 0.0247962 0.0218125 0.0126791 0.0212916 0.0211594 0.0115982 0.0221421 0.0207177 
0.00963693 0.027003 0.0218349 0.0109288 0.0273959 0.0206021 0.0139185 0.0276191 0.0219637 
0.0131207 0.0229511 0.022238 0.0205427 0.0274264 0.0205518 0.019654 0.0262553 0.0205 
0.0224624 0.0220168 0.0214999 0.0179425 0.0239705 0.0204999 0.0234051 0.0266381 0.0205548 
0.0188386 0.0274721 0.0207556 0.0191826 0.0227748 0.020953 0.020049 0.0222803 0.0205039 
0.0174733 0.0232716 0.0210405 0.0188948 0.0216846 0.0214931 0.0166754 0.0275671 0.020768 
0.0190918 0.0242701 0.0209844 0.0207932 0.0243792 0.0205 0.0213982 0.0262384 0.0207525 
0.0201261 0.0274549 0.0217529 0.0172261 0.0216886 0.0219727 0.0222666 0.0245191 0.0223039 
0.000553522 0.0316145 0.0205 0.00234489 0.0348886 0.022092 0.00155289 0.0320593 0.0205099 
0.00280952 0.0285772 0.02075 0.000779519 0.0330672 0.0207499 0.00461842 0.0337964 0.02075 
0.00522534 0.0319699 0.0205 0.00340649 0.0326779 0.02075 0.000500193 0.0342742 0.0205 
0.00620696 0.031504 0.0205 0.00513311 0.0302933 0.0212558 0.00508886 0.0333539 0.0221102 
0.00683234 0.0338231 0.0212499 0.00074901 0.0291886 0.0205411 0.00688355 0.0322408 0.0205 
0.00225338 0.0306077 0.0221053 0.00412738 0.0289194 0.0221438 0.000501447 0.0325894 0.021871 
0.00748033 0.0320564 0.0219729 0.00798317 0.0317211 0.0205006 0.0149973 0.0300955 0.0205 
0.011037 0.0329046 0.0205 0.00995924 0.0319604 0.0205 0.00800261 0.0290721 0.0217499 
0.0133299 0.0287765 0.0207604 0.00933061 0.0337272 0.0212499 0.0143873 0.0317927 0.0215246 
[...]
POINT_DATA 1509
FIELD FieldData 7
id 1 1509 int
324 291 368 784 32 241 815 448 300 
442 816 710 527 256 870 100 153 486 
722 864 503 561 501 64 954 274 75 
1195 390 842 121 228 490 199 395 474 
282 590 176 289 362 370 783 51 233 
217 636 549 126 307 676 209 730 764 
311 192 763 66 61 108 581 89 155 
178 364 171 161 159 204 219 333 142 
200 340 452 518 185 31 123 273 113 
544 577 652 290 281 190 57 143 853 
106 1012 588 360 380 154 427 13 879 
137 44 401 1166 1234 323 887 820 1067 
1359 713 881 911 943 673 174 447 1070 
737 891 35 275 46 80 556 287 714 
865 756 318 686 975 10 569 252 33 
872 188 772 709 1061 342 110 1028 1118 
826 59 974 571 734 968 189 319 6 
293 735 308 49 146 109 578 139 90 
71 659 967 130 41 231 279 693 725 
697 330 78 741 800 538 1236 812 944 
794 592 542 910 450 523 956 439 646 
611 70 508 695 550 1 529 786 269 
19 1077 54 877 888 1060 1004 1293 180 
221 62 118 198 582 717 1232 934 1310 
1212 1338 838 1448 624 1496 272 43 260 
345 591 465 350 719 628 42 747 813 
787 492 238 947 1216 1230 566 1333 1091 
1398 1189 1193 1427 898 1253 1452 1488 678 
896 482 12 700 600 36 688 952 1081 
1416 904 1439 831 1423 152 780 353 144 
978 1233 1264 1292 1294 1350 1394 1164 1180 
1208 1462 1267 1467 512 862 1020 982 957 
1113 1288 1105 1311 1320 1361 1048 1415 1087 
1176 1442 1269 162 249 259 534 522 672 
348 337 897 980 991 638 925 483 1103 
338 1406 506 1480 505 261 886 138 919 
861 471 984 1192 1249 1093 1041 1330 1419 
1446 1154 1044 557 1015 698 609 304 1083 
909 1120 916 1307 1153 1142 1335 1348 1273 
1414 1016 1205 535 844 60 451 433 386 
366 680 519 668 247 733 1108 615 554 
1186 316 1276 1177 570 309 626 1372 949 
640 91 514 641 1018 1019 669 835 1134 
802 1033 1101 960 1278 1043 1107 1131 973 
901 1148 1400 268 924 1487 1023 1167 1149 
990 1145 1003 374 394 326 650 959 848 
993 996 892 856 1261 986 1140 1117 1181 
1095 1268 584 579 242 814 423 347 543 
855 402 712 1242 1251 987 682 762 533 
495 1387 236 1100 40 883 328 969 405 
453 335 1194 1201 1240 367 1297 1306 1490 
1133 985 1062 485 499 804 935 970 859 
1097 1155 1271 1289 1135 1319 1334 917 963 
1299 1411 1426 1384 847 1494 3 740 354 
424 265 145 704 788 122 866 525 230 
637 1382 1421 1453 551 371 496 977 936 
1151 792 1260 1089 278 1054 1471 1363 410 
168 467 133 769 976 776 702 415 431 
573 73 470 258 785 661 1102 1005 649 
1146 690 829 1031 777 1200 1169 1009 112 
194 357 567 489 773 510 331 781 94 
1199 361 116 378 899 24 421 446 244 
379 381 267 665 922 923 88 1156 907 
1115 147 771 11 373 81 493 760 1010 
580 1127 1171 593 1218 1237 1327 1322 1248 
1255 1354 1393 1079 8 711 653 306 716 
48 863 414 445 26 222 186 455 129 
45 313 477 595 851 778 38 502 438 
1045 1456 165 619 1076 574 105 218 694 
806 634 948 667 264 601 7 226 86 
532 96 953 894 1163 843 1034 854 1279 
860 540 703 926 187 736 103 325 1071 
720 1185 102 1283 1039 1304 817 1316 795 
796 1433 1428 140 1125 564 179 1160 1204 
1126 271 344 696 84 964 411 469 255 
157 104 355 18 456 478 225 39 117 
645 14 541 589 250 131 586 873 610 
377 461 314 332 263 558 745 76 243 
299 629 167 351 210 149 69 565 560 
22 744 644 132 513 56 215 53 363 
284 869 229 468 183 651 559 20 184 
443 29 101 197 422 473 182 302 288 
87 125 79 195 435 173 277 206 563 
605 664 407 393 464 1013 630 679 498 
239 398 235 408 404 376 257 134 418 
358 52 141 163 9 329 93 481 234 
655 85 253 312 606 458 746 317 158 
385 587 596 388 466 151 28 599 320 
156 175 997 971 208 583 929 548 472 
839 836 1284 463 220 406 633 731 823 
369 98 979 824 1429 850 286 515 392 
940 868 625 494 684 774 942 598 148 
25 170 34 507 524 16 15 572 845 
97 895 613 1065 1116 5 604 723 759 
459 1038 322 2 1064 1397 365 160 17 
92 202 136 211 724 47 115 372 334 
77 631 841 536 164 1072 989 585 801 
1082 419 1111 983 120 962 425 1104 798 
237 1314 1032 509 998 1001 1066 488 212 
1190 627 742 685 1257 675 399 617 1407 
343 1085 1492 1029 663 938 858 941 958 
1022 1197 1040 810 893 890 1080 1086 1096 
213 874 1225 1238 1122 1231 1324 1339 1410 
1326 30 432 172 648 677 691 1138 789 
758 726 932 1256 1369 770 1312 400 1210 
1315 1203 1458 1021 1489 1493 1495 1296 436 
296 972 782 647 476 223 832 718 315 
285 521 479 1196 1053 196 576 430 748 
409 837 1110 657 715 833 662 1130 1056 
1295 1364 1035 1078 1441 1392 1457 1454 1417 
1250 639 1170 594 1229 1287 1298 1374 1401 
1137 1124 1434 1440 1450 1473 1498 1502 1144 
245 99 504 928 1247 1174 1331 946 1373 
775 1376 1388 1285 1404 1474 1483 915 1221 
1198 597 1094 1128 749 1342 1343 1379 1007 
1263 1464 1371 1349 1436 1202 1424 1121 1184 
1243 908 1106 1219 937 1017 1323 1370 1377 
1403 1409 1413 1437 1460 1461 1472 412 1073 
1168 752 1084 1275 1141 1290 1291 1143 1281 
1355 1025 1449 1455 1139 553 1353 1375 1435 
1152 1451 1469 1470 1024 1136 1491 1147 1386 
1209 623 1090 1213 1224 1258 1270 1047 1302 
1305 1318 1362 1356 1381 1438 1329 1445 1447 
305 900 1468 1191 457 1000 621 765 1179 
1215 1245 1301 1497 1254 912 1092 602 1265 
500 1340 1346 1367 1399 1161 1482 1484 950 
1504 809 878 1227 1011 1069 966 876 889 
981 1051 1165 1309 1222 1408 1420 1422 1431 
1506 701 545 462 608 920 1030 1098 658 
875 1351 1357 1378 1390 1396 1432 999 1476 
1481 885 1336 1385 1391 654 1162 1443 1485 
1486 1344 1026 1123 927 384 961 811 1068 
939 738 670 520 1049 1088 1188 1235 1099 
1286 1317 1347 356 1430 1444 1465 607 674 
620 1036 603 537 799 822 1058 852 1244 
1402 441 1501 1503 1459 382 705 403 903 
797 821 632 454 1241 913 1332 1477 1478 
1500 526 880 930 1055 124 687 426 531 
965 396 74 739 994 931 706 341 346 
327 671 689 728 753 808 846 1037 1282 
834 1383 487 945 1214 933 375 807 37 
791 437 528 251 1187 1207 1274 1300 95 
1466 1366 921 1220 1308 1412 1368 547 397 
1059 727 1228 1175 1277 428 729 955 692 
1075 1150 1246 1262 1132 1352 1418 1057 1252 
827 1463 754 707 150 562 517 884 1157 
67 1109 992 803 352 303 227 768 642 
793 914 1074 511 1280 1499 444 55 766 
840 349 767 555 988 660 750 193 681 
475 614 270 1050 618 383 790 1313 1358 
1389 1425 1479 1505 1158 1173 867 1183 699 
1046 1182 1206 1211 1223 1259 1266 1272 779 
1303 1325 1328 1345 1360 1365 1475 828 1226 
491 902 721 416 857 575 301 1008 1112 
413 882 181 191 643 616 321 871 905 
1129 266 1159 1178 1217 1239 1395 849 201 
708 1014 254 276 539 568 295 951 1119 
417 1027 216 906 205 819 232 761 107 
732 757 4 203 50 283 119 635 114 
1002 1063 818 1321 1341 1380 1006 207 128 
995 82 830 666 683 434 127 497 359 
72 387 546 262 622 420 292 23 298 
805 825 516 918 1042 552 1172 1337 1114 
83 656 1052 612 391 755 68 297 484 
530 480 214 440 65 248 63 743 135 
169 246 336 339 224 280 429 449 111 
58 177 294 310 240 389 21 27 166 
460 751 1405 1507 1508 1509 
type 1 1509 int
1 1 1 1 1 1 1 1 1 
1 1 1 1 1 1 1 1 1 
1 1 1 1 1 1 1 1 1 
1 1 1 1 1 1 1 1 1 
1 1 1 1 1 1 1 1 1 
1 1 1 1 1 1 1 1 1 
1 1 1 1 1 1 1 1 1 
1 1 1 1 1 1 1 1 1 
1 1 1 1 1 1 1 1 1 
1 1 1 1 1 1 1 1 1 
1 1 1 1 1 1 1 1 1 
1 1 1 1 1 1 1 1 1 
1 1 1 1 1 1 1 1 1 
1 1 1 1 1 1 1 1 1 
1 1 1 1 1 1 1 1 1 
1 1 1 1 1 1 1 1 1 
1 1 1 1 1 1 1 1 1 
1 1 1 1 1 1 1 1 1 
1 1 1 1 1 1 1 1 1 
1 1 1 1 1 1 1 1 1 
1 1 1 1 1 1 1 1 1 
1 1 1 1 1 1 1 1 1 
1 1 1 1 1 1 1 1 1 
1 1 1 1 1 1 1 1 1 
1 1 1 1 1 1 1 1 1 
1 1 1 1 1 1 1 1 1 
1 1 1 1 1 1 1 1 1 
1 1 1 1 1 1 1 1 1 
1 1 1 1 1 1 1 1 1 
1 1 1 1 1 1 1 1 1 
1 1 1 1 1 1 1 1 1 
1 1 1 1 1 1 1 1 1 
1 1 1 1 1 1 1 1 1 
1 1 1 1 1 1 1 1 1 
1 1 1 1 1 1 1 1 1 
1 1 1 1 1 1 1 1 1 
1 1 1 1 1 1 1 1 1 
1 1 1 1 1 1 1 1 1 
1 1 1 1 1 1 1 1 1 
1 1 1 1 1 1 1 1 1 
1 1 1 1 1 1 1 1 1 
1 1 1 1 1 1 1 1 1 
1 1 1 1 1 1 1 1 1 
1 1 1 1 1 1 1 1 1 
1 1 1 1 1 1 1 1 1 
1 1 1 1 1 1 1 1 1 
1 1 1 1 1 1 1 1 1 
1 1 1 1 1 1 1 1 1 
1 1 1 1 1 1 1 1 1 
1 1 1 1 1 1 1 1 1 
1 1 1 1 1 1 1 1 1 
1 1 1 1 1 1 1 1 1 
1 1 1 1 1 1 1 1 1 
1 1 1 1 1 1 1 1 1 
1 1 1 1 1 1 1 1 1 
1 1 1 1 1 1 1 1 1 
1 1 1 1 1 1 1 1 1 
1 1 1 1 1 1 1 1 1 
1 1 1 1 1 1 1 1 1 
1 1 1 1 1 1 1 1 1 
1 1 1 1 1 1 1 1 1 
1 1 1 1 1 1 1 1 1 
1 1 1 1 1 1 1 1 1 
1 1 1 1 1 1 1 1 1 
1 1 1 1 1 1 1 1 1 
1 1 1 1 1 1 1 1 1 
1 1 1 1 1 1 1 1 1 
1 1 1 1 1 1 1 1 1 
1 1 1 1 1 1 1 1 1 
1 1 1 1 1 1 1 1 1 
1 1 1 1 1 1 1 1 1 
1 1 1 1 1 1 1 1 1 
1 1 1 1 1 1 1 1 1 
1 1 1 1 1 1 1 1 1 
1 1 1 1 1 1 1 1 1 
1 1 1 1 1 1 1 1 1 
1 1 1 1 1 1 1 1 1 
1 1 1 1 1 1 1 1 1 
1 1 1 1 1 1 1 1 1 
1 1 1 1 1 1 1 1 1 
1 1 1 1 1 1 1 1 1 
1 1 1 1 1 1 1 1 1 
1 1 1 1 1 1 1 1 1 
1 1 1 1 1 1 1 1 1 
1 1 1 1 1 1 1 1 1 
1 1 1 1 1 1 1 1 1 
1 1 1 1 1 1 1 1 1 
1 1 1 1 1 1 1 1 1 
1 1 1 1 1 1 1 1 1 
1 1 1 1 1 1 1 1 1 
1 1 1 1 1 1 1 1 1 
1 1 1 1 1 1 1 1 1 
1 1 1 1 1 1 1 1 1 
1 1 1 1 1 1 1 1 1 
1 1 1 1 1 1 1 1 1 
1 1 1 1 1 1 1 1 1 
1 1 1 1 1 1 1 1 1 
1 1 1 1 1 1 1 1 1 
1 1 1 1 1 1 1 1 1 
1 1 1 1 1 1 1 1 1 
1 1 1 1 1 1 1 1 1 
1 1 1 1 1 1 1 1 1 
1 1 1 1 1 1 1 1 1 
1 1 1 1 1 1 1 1 1 
1 1 1 1 1 1 1 1 1 
1 1 1 1 1 1 1 1 1 
1 1 1 1 1 1 1 1 1 
1 1 1 1 1 1 1 1 1 
1 1 1 1 1 1 1 1 1 
1 1 1 1 1 1 1 1 1 
1 1 1 1 1 1 1 1 1 
1 1 1 1 1 1 1 1 1 
1 1 1 1 1 1 1 1 1 
1 1 1 1 1 1 1 1 1 
1 1 1 1 1 1 1 1 1 
1 1 1 1 1 1 1 1 1 
1 1 1 1 1 1 1 1 1 
1 1 1 1 1 1 1 1 1 
1 1 1 1 1 1 1 1 1 
1 1 1 1 1 1 1 1 1 
1 1 1 1 1 1 1 1 1 
1 1 1 1 1 1 1 1 1 
1 1 1 1 1 1 1 1 1 
1 1 1 1 1 1 1 1 1 
1 1 1 1 1 1 1 1 1 
1 1 1 1 1 1 1 1 1 
1 1 1 1 1 1 1 1 1 
1 1 1 1 1 1 1 1 1 
1 1 1 1 1 1 1 1 1 
1 1 1 1 1 1 1 1 1 
1 1 1 1 1 1 1 1 1 
1 1 1 1 1 1 1 1 1 
1 1 1 1 1 1 1 1 1 
1 1 1 1 1 1 1 1 1 
1 1 1 1 1 1 1 1 1 
1 1 1 1 1 1 1 1 1 
1 1 1 1 1 1 1 1 1 
1 1 1 1 1 1 1 1 1 
1 1 1 1 1 1 1 1 1 
1 1 1 1 1 1 1 1 1 
1 1 1 1 1 1 1 1 1 
1 1 1 1 1 1 1 1 1 
1 1 1 1 1 1 1 1 1 
1 1 1 1 1 1 1 1 1 
1 1 1 1 1 1 1 1 1 
1 1 1 1 1 1 1 1 1 
1 1 1 1 1 1 1 1 1 
1 1 1 1 1 1 1 1 1 
1 1 1 1 1 1 1 1 1 
1 1 1 1 1 1 1 1 1 
1 1 1 1 1 1 1 1 1 
1 1 1 1 1 1 1 1 1 
1 1 1 1 1 1 1 1 1 
1 1 1 1 1 1 1 1 1 
1 1 1 1 1 1 1 1 1 
1 1 1 1 1 1 1 1 1 
1 1 1 1 1 1 1 1 1 
1 1 1 1 1 1 1 1 1 
1 1 1 1 1 1 1 1 1 
1 1 1 1 1 1 1 1 1 
1 1 1 1 1 1 1 1 1 
1 1 1 1 1 1 1 1 1 
1 1 1 1 1 1 1 1 1 
1 1 1 1 1 1 1 1 1 
1 1 1 1 1 1 1 1 1 
1 1 1 1 1 1 1 1 1 
1 1 1 1 1 1 1 1 1 
1 1 1 1 1 1 
i 3 1509 int
0 0 0 0 0 0 0 0 0 
0 0 0 0 0 0 0 0 0 
0 0 0 0 0 0 0 0 0 
0 0 0 0 0 0 0 0 0 
0 0 0 0 0 0 0 0 0 
0 0 0 0 0 0 0 0 0 
0 0 0 0 0 0 0 0 0 
0 0 0 0 0 0 0 0 0 
0 0 0 0 0 0 0 0 0 
0 0 0 0 0 0 0 0 0 
0 0 0 0 0 0 0 0 0 
0 0 0 0 0 0 0 0 0 
0 0 0 0 0 0 0 0 0 
0 0 0 0 0 0 0 0 0 
0 0 0 0 0 0 0 0 0 
0 0 0 0 0 0 0 0 0 
0 0 0 0 0 0 0 0 0 
0 0 0 0 0 0 0 0 0 
0 0 0 0 0 0 0 0 0 
0 0 0 0 0 0 0 0 0 
0 0 0 0 0 0 0 0 0 
0 0 0 0 0 0 0 0 0 
0 0 0 0 0 0 0 0 0 
0 0 0 0 0 0 0 0 0 
0 0 0 0 0 0 0 0 0 
0 0 0 0 0 0 0 0 0 
0 0 0 0 0 0 0 0 0 
0 0 0 0 0 0 0 0 0 
0 0 0 0 0 0 0 0 0 
0 0 0 0 0 0 0 0 0 
0 0 0 0 0 0 0 0 0 
0 0 0 0 0 0 0 0 0 
0 0 0 0 0 0 0 0 0 
0 0 0 0 0 0 0 0 0 
0 0 0 0 0 0 0 0 0 
0 0 0 0 0 0 0 0 0 
0 0 0 0 0 0 0 0 0 
0 0 0 0 0 0 0 0 0 
0 0 0 0 0 0 0 0 0 
0 0 0 0 0 0 0 0 0 
0 0 0 0 0 0 0 0 0 
0 0 0 0 0 0 0 0 0 
0 0 0 0 0 0 0 0 0 
0 0 0 0 0 0 0 0 0 
0 0 0 0 0 0 0 0 0 
0 0 0 0 0 0 0 0 0 
0 0 0 0 0 0 0 0 0 
0 0 0 0 0 0 0 0 0 
0 0 0 0 0 0 0 0 0 
0 0 0 0 0 0 0 0 0 
0 0 0 0 0 0 0 0 0 
0 0 0 0 0 0 0 0 0 
0 0 0 0 0 0 0 0 0 
0 0 0 0 0 0 0 0 0 
0 0 0 0 0 0 0 0 0 
0 0 0 0 0 0 0 0 0 
0 0 0 0 0 0 0 0 0 
0 0 0 0 0 0 0 0 0 
0 0 0 0 0 0 0 0 0 
0 0 0 0 0 0 0 0 0 
0 0 0 0 0 0 0 0 0 
0 0 0 0 0 0 0 0 0 
0 0 0 0 0 0 0 0 0 
0 0 0 0 0 0 0 0 0 
0 0 0 0 0 0 0 0 0 
0 0 0 0 0 0 0 0 0 
0 0 0 0 0 0 0 0 0 
0 0 0 0 0 0 0 0 0 
0 0 0 0 0 0 0 0 0 
0 0 0 0 0 0 0 0 0 
0 0 0 0 0 0 0 0 0 
0 0 0 0 0 0 0 0 0 
0 0 0 0 0 0 0 0 0 
0 0 0 0 0 0 0 0 0 
0 0 0 0 0 0 0 0 0 
0 0 0 0 0 0 0 0 0 
0 0 0 0 0 0 0 0 0 
0 0 0 0 0 0 0 0 0 
0 0 0 0 0 0 0 0 0 
0 0 0 0 0 0 0 0 0 
0 0 0 0 0 0 0 0 0 
0 0 0 0 0 0 0 0 0 
0 0 0 0 0 0 0 0 0 
0 0 0 0 0 0 0 0 0 
0 0 0 0 0 0 0 0 0 
0 0 0 0 0 0 0 0 0 
0 0 0 0 0 0 0 0 0 
0 0 0 0 0 0 0 0 0 
0 0 0 0 0 0 0 0 0 
0 0 0 0 0 0 0 0 0 
0 0 0 0 0 0 0 0 0 
0 0 0 0 0 0 0 0 0 
0 0 0 0 0 0 0 0 0 
0 0 0 0 0 0 0 0 0 
0 0 0 0 0 0 0 0 0 
0 0 0 0 0 0 0 0 0 
0 0 0 0 0 0 0 0 0 
0 0 0 0 0 0 0 0 0 
0 0 0 0 0 0 0 0 0 
0 0 0 0 0 0 0 0 0 
0 0 0 0 0 0 0 0 0 
0 0 0 0 0 0 0 0 0 
0 0 0 0 0 0 0 0 0 
0 0 0 0 0 0 0 0 0 
0 0 0 0 0 0 0 0 0 
0 0 0 0 0 0 0 0 0 
0 0 0 0 0 0 0 0 0 
0 0 0 0 0 0 0 0 0 
0 0 0 0 0 0 0 0 0 
0 0 0 0 0 0 0 0 0 
0 0 0 0 0 0 0 0 0 
0 0 0 0 0 0 0 0 0 
0 0 0 0 0 0 0 0 0 
0 0 0 0 0 0 0 0 0 
0 0 0 0 0 0 0 0 0 
0 0 0 0 0 0 0 0 0 
0 0 0 0 0 0 0 0 0 
0 0 0 0 0 0 0 0 0 
0 0 0 0 0 0 0 0 0 
0 0 0 0 0 0 0 0 0 
0 0 0 0 0 0 0 0 0 
0 0 0 0 0 0 0 0 0 
0 0 0 0 0 0 0 0 0 
0 0 0 0 0 0 0 0 0 
0 0 0 0 0 0 0 0 0 
0 0 0 0 0 0 0 0 0 
0 0 0 0 0 0 0 0 0 
0 0 0 0 0 0 0 0 0 
0 0 0 0 0 0 0 0 0 
0 0 0 0 0 0 0 0 0 
0 0 0 0 0 0 0 0 0 
0 0 0 0 0 0 0 0 0 
0 0 0 0 0 0 0 0 0 
0 0 0 0 0 0 0 0 0 
0 0 0 0 0 0 0 0 0 
0 0 0 0 0 0 0 0 0 
0 0 0 0 0 0 0 0 0 
0 0 0 0 0 0 0 0 0 
0 0 0 0 0 0 0 0 0 
0 0 0 0 0 0 0 0 0 
0 0 0 0 0 0 0 0 0 
0 0 0 0 0 0 0 0 0 
0 0 0 0 0 0 0 0 0 
0 0 0 0 0 0 0 0 0 
0 0 0 0 0 0 0 0 0 
0 0 0 0 0 0 0 0 0 
0 0 0 0 0 0 0 0 0 
0 0 0 0 0 0 0 0 0 
0 0 0 0 0 0 0 0 0 
0 0 0 0 0 0 0 0 0 
0 0 0 0 0 0 0 0 0 
0 0 0 0 0 0 0 0 0 
0 0 0 0 0 0 0 0 0 
0 0 0 0 0 0 0 0 0 
0 0 0 0 0 0 0 0 0 
0 0 0 0 0 0 0 0 0 
0 0 0 0 0 0 0 0 0 
0 0 0 0 0 0 0 0 0 
0 0 0 0 0 0 0 0 0 
0 0 0 0 0 0 0 0 0 
0 0 0 0 0 0 0 0 0 
0 0 0 0 0 0 0 0 0 
0 0 0 0 0 0 0 0 0 
0 0 0 0 0 0 0 0 0 
0 0 0 0 0 0 0 0 0 
0 0 0 0 0 0 0 0 0 
0 0 0 0 0 0 0 0 0 
0 0 0 0 0 0 0 0 0 
0 0 0 0 0 0 0 0 0 
0 0 0 0 0 0 0 0 0 
0 0 0 0 0 0 0 0 0 
0 0 0 0 0 0 0 0 0 
0 0 0 0 0 0 0 0 0 
0 0 0 0 0 0 0 0 0 
0 0 0 0 0 0 0 0 0 
0 0 0 0 0 0 0 0 0 
0 0 0 0 0 0 0 0 0 
0 0 0 0 0 0 0 0 0 
0 0 0 0 0 0 0 0 0 
0 0 0 0 0 0 0 0 0 
0 0 0 0 0 0 0 0 0 
0 0 0 0 0 0 0 0 0 
0 0 0 0 0 0 0 0 0 
0 0 0 0 0 0 0 0 0 
0 0 0 0 0 0 0 0 0 
0 0 0 0 0 0 0 0 0 
0 0 0 0 0 0 0 0 0 
0 0 0 0 0 0 0 0 0 
0 0 0 0 0 0 0 0 0 
0 0 0 0 0 0 0 0 0 
0 0 0 0 0 0 0 0 0 
0 0 0 0 0 0 0 0 0 
0 0 0 0 0 0 0 0 0 
0 0 0 0 0 0 0 0 0 
0 0 0 0 0 0 0 0 0 
0 0 0 0 0 0 0 0 0 
0 0 0 0 0 0 0 0 0 
0 0 0 0 0 0 0 0 0 
0 0 0 0 0 0 0 0 0 
0 0 0 0 0 0 0 0 0 
0 0 0 0 0 0 0 0 0 
0 0 0 0 0 0 0 0 0 
0 0 0 0 0 0 0 0 0 
0 0 0 0 0 0 0 0 0 
0 0 0 0 0 0 0 0 0 
0 0 0 0 0 0 0 0 0 
0 0 0 0 0 0 0 0 0 
0 0 0 0 0 0 0 0 0 
0 0 0 0 0 0 0 0 0 
0 0 0 0 0 0 0 0 0 
0 0 0 0 0 0 0 0 0 
0 0 0 0 0 0 0 0 0 
0 0 0 0 0 0 0 0 0 
0 0 0 0 0 0 0 0 0 
0 0 0 0 0 0 0 0 0 
0 0 0 0 0 0 0 0 0 
0 0 0 0 0 0 0 0 0 
0 0 0 0 0 0 0 0 0 
0 0 0 0 0 0 0 0 0 
0 0 0 0 0 0 0 0 0 
0 0 0 0 0 0 0 0 0 
0 0 0 0 0 0 0 0 0 
0 0 0 0 0 0 0 0 0 
0 0 0 0 0 0 0 0 0 
0 0 0 0 0 0 0 0 0 
0 0 0 0 0 0 0 0 0 
0 0 0 0 0 0 0 0 0 
0 0 0 0 0 0 0 0 0 
0 0 0 0 0 0 0 0 0 
0 0 0 0 0 0 0 0 0 
0 0 0 0 0 0 0 0 0 
0 0 0 0 0 0 0 0 0 
0 0 0 0 0 0 0 0 0 
0 0 0 0 0 0 0 0 0 
0 0 0 0 0 0 0 0 0 
0 0 0 0 0 0 0 0 0 
0 0 0 0 0 0 0 0 0 
0 0 0 0 0 0 0 0 0 
0 0 0 0 0 0 0 0 0 
0 0 0 0 0 0 0 0 0 
0 0 0 0 0 0 0 0 0 
0 0 0 0 0 0 0 0 0 
0 0 0 0 0 0 0 0 0 
0 0 0 0 0 0 0 0 0 
0 0 0 0 0 0 0 0 0 
0 0 0 0 0 0 0 0 0 
0 0 0 0 0 0 0 0 0 
0 0 0 0 0 0 0 0 0 
0 0 0 0 0 0 0 0 0 
0 0 0 0 0 0 0 0 0 
0 0 0 0 0 0 0 0 0 
0 0 0 0 0 0 0 0 0 
0 0 0 0 0 0 0 0 0 
0 0 0 0 0 0 0 0 0 
0 0 0 0 0 0 0 0 0 
0 0 0 0 0 0 0 0 0 
0 0 0 0 0 0 0 0 0 
0 0 0 0 0 0 0 0 0 
0 0 0 0 0 0 0 0 0 
0 0 0 0 0 0 0 0 0 
0 0 0 0 0 0 0 0 0 
0 0 0 0 0 0 0 0 0 
0 0 0 0 0 0 0 0 0 
0 0 0 0 0 0 0 0 0 
0 0 0 0 0 0 0 0 0 
0 0 0 0 0 0 0 0 0 
0 0 0 0 0 0 0 0 0 
0 0 0 0 0 0 0 0 0 
0 0 0 0 0 0 0 0 0 
0 0 0 0 0 0 0 0 0 
0 0 0 0 0 0 0 0 0 
0 0 0 0 0 0 0 0 0 
0 0 0 0 0 0 0 0 0 
0 0 0 0 0 0 0 0 0 
0 0 0 0 0 0 0 0 0 
0 0 0 0 0 0 0 0 0 
0 0 0 0 0 0 0 0 0 
0 0 0 0 0 0 0 0 0 
0 0 0 0 0 0 0 0 0 
0 0 0 0 0 0 0 0 0 
0 0 0 0 0 0 0 0 0 
0 0 0 0 0 0 0 0 0 
0 0 0 0 0 0 0 0 0 
0 0 0 0 0 0 0 0 0 
0 0 0 0 0 0 0 0 0 
0 0 0 0 0 0 0 0 0 
0 0 0 0 0 0 0 0 0 
0 0 0 0 0 0 0 0 0 
0 0 0 0 0 0 0 0 0 
0 0 0 0 0 0 0 0 0 
0 0 0 0 0 0 0 0 0 
0 0 0 0 0 0 0 0 0 
0 0 0 0 0 0 0 0 0 
0 0 0 0 0 0 0 0 0 
0 0 0 0 0 0 0 0 0 
0 0 0 0 0 0 0 0 0 
0 0 0 0 0 0 0 0 0 
0 0 0 0 0 0 0 0 0 
0 0 0 0 0 0 0 0 0 
0 0 0 0 0 0 0 0 0 
0 0 0 0 0 0 0 0 0 
0 0 0 0 0 0 0 0 0 
0 0 0 0 0 0 0 0 0 
0 0 0 0 0 0 0 0 0 
0 0 0 0 0 0 0 0 0 
0 0 0 0 0 0 0 0 0 
0 0 0 0 0 0 0 0 0 
0 0 0 0 0 0 0 0 0 
0 0 0 0 0 0 0 0 0 
0 0 0 0 0 0 0 0 0 
0 0 0 0 0 0 0 0 0 
0 0 0 0 0 0 0 0 0 
0 0 0 0 0 0 0 0 0 
0 0 0 0 0 0 0 0 0 
0 0 0 0 0 0 0 0 0 
0 0 0 0 0 0 0 0 0 
0 0 0 0 0 0 0 0 0 
0 0 0 0 0 0 0 0 0 
0 0 0 0 0 0 0 0 0 
0 0 0 0 0 0 0 0 0 
0 0 0 0 0 0 0 0 0 
0 0 0 0 0 0 0 0 0 
0 0 0 0 0 0 0 0 0 
0 0 0 0 0 0 0 0 0 
0 0 0 0 0 0 0 0 0 
0 0 0 0 0 0 0 0 0 
0 0 0 0 0 0 0 0 0 
0 0 0 0 0 0 0 0 0 
0 0 0 0 0 0 0 0 0 
0 0 0 0 0 0 0 0 0 
0 0 0 0 0 0 0 0 0 
0 0 0 0 0 0 0 0 0 
0 0 0 0 0 0 0 0 0 
0 0 0 0 0 0 0 0 0 
0 0 0 0 0 0 0 0 0 
0 0 0 0 0 0 0 0 0 
0 0 0 0 0 0 0 0 0 
0 0 0 0 0 0 0 0 0 
0 0 0 0 0 0 0 0 0 
0 0 0 0 0 0 0 0 0 
0 0 0 0 0 0 0 0 0 
0 0 0 0 0 0 0 0 0 
0 0 0 0 0 0 0 0 0 
0 0 0 0 0 0 0 0 0 
0 0 0 0 0 0 0 0 0 
0 0 0 0 0 0 0 0 0 
0 0 0 0 0 0 0 0 0 
0 0 0 0 0 0 0 0 0 
0 0 0 0 0 0 0 0 0 
0 0 0 0 0 0 0 0 0 
0 0 0 0 0 0 0 0 0 
0 0 0 0 0 0 0 0 0 
0 0 0 0 0 0 0 0 0 
0 0 0 0 0 0 0 0 0 
0 0 0 0 0 0 0 0 0 
0 0 0 0 0 0 0 0 0 
0 0 0 0 0 0 0 0 0 
0 0 0 0 0 0 0 0 0 
0 0 0 0 0 0 0 0 0 
0 0 0 0 0 0 0 0 0 
0 0 0 0 0 0 0 0 0 
0 0 0 0 0 0 0 0 0 
0 0 0 0 0 0 0 0 0 
0 0 0 0 0 0 0 0 0 
0 0 0 0 0 0 0 0 0 
0 0 0 0 0 0 0 0 0 
0 0 0 0 0 0 0 0 0 
0 0 0 0 0 0 0 0 0 
0 0 0 0 0 0 0 0 0 
0 0 0 0 0 0 0 0 0 
0 0 0 0 0 0 0 0 0 
0 0 0 0 0 0 0 0 0 
0 0 0 0 0 0 0 0 0 
0 0 0 0 0 0 0 0 0 
0 0 0 0 0 0 0 0 0 
0 0 0 0 0 0 0 0 0 
0 0 0 0 0 0 0 0 0 
0 0 0 0 0 0 0 0 0 
0 0 0 0 0 0 0 0 0 
0 0 0 0 0 0 0 0 0 
0 0 0 0 0 0 0 0 0 
0 0 0 0 0 0 0 0 0 
0 0 0 0 0 0 0 0 0 
0 0 0 0 0 0 0 0 0 
0 0 0 0 0 0 0 0 0 
0 0 0 0 0 0 0 0 0 
0 0 0 0 0 0 0 0 0 
0 0 0 0 0 0 0 0 0 
0 0 0 0 0 0 0 0 0 
0 0 0 0 0 0 0 0 0 
0 0 0 0 0 0 0 0 0 
0 0 0 0 0 0 0 0 0 
0 0 0 0 0 0 0 0 0 
0 0 0 0 0 0 0 0 0 
0 0 0 0 0 0 0 0 0 
0 0 0 0 0 0 0 0 0 
0 0 0 0 0 0 0 0 0 
0 0 0 0 0 0 0 0 0 
0 0 0 0 0 0 0 0 0 
0 0 0 0 0 0 0 0 0 
0 0 0 0 0 0 0 0 0 
0 0 0 0 0 0 0 0 0 
0 0 0 0 0 0 0 0 0 
0 0 0 0 0 0 0 0 0 
0 0 0 0 0 0 0 0 0 
0 0 0 0 0 0 0 0 0 
0 0 0 0 0 0 0 0 0 
0 0 0 0 0 0 0 0 0 
0 0 0 0 0 0 0 0 0 
0 0 0 0 0 0 0 0 0 
0 0 0 0 0 0 0 0 0 
0 0 0 0 0 0 0 0 0 
0 0 0 0 0 0 0 0 0 
0 0 0 0 0 0 0 0 0 
0 0 0 0 0 0 0 0 0 
0 0 0 0 0 0 0 0 0 
0 0 0 0 0 0 0 0 0 
0 0 0 0 0 0 0 0 0 
0 0 0 0 0 0 0 0 0 
0 0 0 0 0 0 0 0 0 
0 0 0 0 0 0 0 0 0 
0 0 0 0 0 0 0 0 0 
0 0 0 0 0 0 0 0 0 
0 0 0 0 0 0 0 0 0 
0 0 0 0 0 0 0 0 0 
0 0 0 0 0 0 0 0 0 
0 0 0 0 0 0 0 0 0 
0 0 0 0 0 0 0 0 0 
0 0 0 0 0 0 0 0 0 
0 0 0 0 0 0 0 0 0 
0 0 0 0 0 0 0 0 0 
0 0 0 0 0 0 0 0 0 
0 0 0 0 0 0 0 0 0 
0 0 0 0 0 0 0 0 0 
0 0 0 0 0 0 0 0 0 
0 0 0 0 0 0 0 0 0 
0 0 0 0 0 0 0 0 0 
0 0 0 0 0 0 0 0 0 
0 0 0 0 0 0 0 0 0 
0 0 0 0 0 0 0 0 0 
0 0 0 0 0 0 0 0 0 
0 0 0 0 0 0 0 0 0 
0 0 0 0 0 0 0 0 0 
0 0 0 0 0 0 0 0 0 
0 0 0 0 0 0 0 0 0 
0 0 0 0 0 0 0 0 0 
0 0 0 0 0 0 0 0 0 
0 0 0 0 0 0 0 0 0 
0 0 0 0 0 0 0 0 0 
0 0 0 0 0 0 0 0 0 
0 0 0 0 0 0 0 0 0 
0 0 0 0 0 0 0 0 0 
0 0 0 0 0 0 0 0 0 
0 0 0 0 0 0 0 0 0 
0 0 0 0 0 0 0 0 0 
0 0 0 0 0 0 0 0 0 
0 0 0 0 0 0 0 0 0 
0 0 0 0 0 0 0 0 0 
0 0 0 0 0 0 0 0 0 
0 0 0 0 0 0 0 0 0 
0 0 0 0 0 0 0 0 0 
0 0 0 0 0 0 0 0 0 
0 0 0 0 0 0 0 0 0 
0 0 0 0 0 0 0 0 0 
0 0 0 0 0 0 0 0 0 
0 0 0 0 0 0 0 0 0 
0 0 0 0 0 0 0 0 0 
0 0 0 0 0 0 0 0 0 
0 0 0 0 0 0 0 0 0 
0 0 0 0 0 0 0 0 0 
0 0 0 0 0 0 0 0 0 
0 0 0 0 0 0 0 0 0 
0 0 0 0 0 0 0 0 0 
0 0 0 0 0 0 0 0 0 
0 0 0 0 0 0 0 0 0 
0 0 0 0 0 0 0 0 0 
0 0 0 0 0 0 0 0 0 
0 0 0 0 0 0 0 0 0 
0 0 0 0 0 0 0 0 0 
0 0 0 0 0 0 0 0 0 
0 0 0 0 0 0 0 0 0 
0 0 0 0 0 0 0 0 0 
0 0 0 0 0 0 0 0 0 
0 0 0 0 0 0 0 0 0 
0 0 0 0 0 0 0 0 0 
0 0 0 0 0 0 0 0 0 
0 0 0 0 0 0 0 0 0 
0 0 0 0 0 0 0 0 0 
0 0 0 0 0 0 0 0 0 
0 0 0 0 0 0 0 0 0 
0 0 0 0 0 0 0 0 0 
0 0 0 0 0 0 0 0 0 
0 0 0 0 0 0 0 0 0 
0 0 0 0 0 0 0 0 0 
0 0 0 0 0 0 0 0 0 
0 0 0 0 0 0 0 0 0 
0 0 0 0 0 0 0 0 0 
0 0 0 0 0 0 0 0 0 
0 0 0 0 0 0 0 0 0 
0 0 0 0 0 0 0 0 0 
0 0 0 0 0 0 0 0 0 
0 0 0 0 0 0 0 0 0 
0 0 0 0 0 0 0 0 0 

v 3 1509 double
0.440097 -0.116927 0.00625924 -0.2739 0.00387096 -0.000614127 -0.0267461 0.284488 3.25483e-05 
-0.375713 1.07637 -0.0943244 -0.333458 0.0191346 -0.141483 -0.219849 0.184665 0.017543 
0.14796 0.164378 3.06254e-11 -0.414637 0.0988728 0.0140724 0.0426041 0.132213 -0.0477562 
0.00308138 0.262419 -0.00285163 0.909124 0.0500549 0.0954207 -0.341018 -0.0421337 1.68761e-11 
0.00622511 0.310305 -3.62064e-07 0.0701965 0.421031 -0.453892 0.155989 -0.174335 -0.0295247 
-0.348441 0.633518 -0.186583 -0.599639 0.471552 -0.185278 0.518795 0.147809 0.002198 