# vtk DataFile Version 4.0
Generated by LIGGGHTS
ASCII
DATASET POLYDATA
POINTS 810 float
0.00377526 0.00522232 0.0220172 0.00719565 0.00398245 0.0205815 0.00739209 0.00128626 0.0206166 
0.00250351 0.00153635 0.0219932 0.00722851 0.0048335 0.0223046 0.000651223 0.00625866 0.0205312 
0.00733237 0.00205084 0.022468 0.0050408 0.00215024 0.0219228 0.0112409 0.00106136 0.0205017 
0.00800979 0.00511008 0.0205297 0.0108184 0.00296559 0.0205039 0.0128281 0.00149043 0.0207887 
0.0129231 0.00557127 0.0211961 0.0101203 0.00196509 0.0205 0.0105333 0.000507687 0.0209871 
0.00934505 0.000920258 0.0208739 0.0153042 0.00520167 0.0205088 0.00959397 0.00189186 0.0221774 
0.00863874 0.00394383 0.0209633 0.0113982 0.00345892 0.0218454 0.0159969 0.00432013 0.0205 
0.018816 0.000802326 0.02075 0.0232483 0.000755116 0.0207499 0.0165907 0.00310227 0.0217304 
0.0218748 0.00400051 0.0205014 0.0228627 0.00343489 0.020511 0.0215265 0.00262751 0.0210021 
0.0169058 0.00582889 0.021526 0.0189125 0.00395829 0.0212499 0.0222492 0.00407098 0.0216949 
0.0232365 0.00226498 0.02075 0.0209405 0.00477229 0.0208049 0.0232402 0.00469232 0.0207526 
0.02248 0.00101108 0.0223633 0.0233404 0.0059157 0.0205219 0.0214114 0.00539471 0.0224792 
0.0207472 0.00380678 0.0220394 0.023233 0.00533103 0.0221993 0.0197651 0.00632648 0.0212497 
0.0184146 0.00681876 0.0223963 0.00302595 0.00736121 0.0205019 0.00659762 0.00875801 0.0206277 
0.00632188 0.0119644 0.0205001 0.00411139 0.0131274 0.0205 0.00534828 0.0106188 0.0209913 
0.00687524 0.0127984 0.0205 0.00668964 0.00977089 0.0205357 0.00273708 0.00875798 0.021002 
0.00537231 0.00889372 0.0205674 0.00395249 0.00967441 0.0207039 0.001382 0.0100347 0.0207511 
0.00768085 0.00906074 0.021691 0.00482574 0.00731208 0.0208178 0.00756699 0.00849467 0.0205293 
0.0011502 0.00928899 0.0217358 0.00518703 0.0124562 0.0207913 0.0015082 0.0127274 0.0215202 
0.00312888 0.010091 0.0220634 0.00737584 0.0108354 0.0209197 0.00775427 0.0133569 0.0204986 
0.00601779 0.00745052 0.0208246 0.00736278 0.00712524 0.0218089 0.00308176 0.0115507 0.0220204 
0.0047447 0.0140354 0.0220166 0.015219 0.00744813 0.0224443 0.0104166 0.00732171 0.020508 
0.0103683 0.00871878 0.0205927 0.0147688 0.00875369 0.0207673 0.0149339 0.0108396 0.0211085 
0.00804914 0.0121704 0.0207506 0.0113338 0.00694522 0.0212877 0.0142587 0.00759943 0.0205 
0.00911076 0.0131838 0.0210846 0.0156861 0.00755982 0.0207512 0.0168747 0.00985287 0.0211062 
0.0215677 0.00941083 0.0207866 0.0215684 0.0110909 0.0205 0.0224943 0.00747454 0.0215014 
0.0234454 0.0089564 0.0205322 0.0173413 0.00790792 0.0207521 0.0160744 0.00872409 0.0205 
0.0228628 0.0105448 0.0210845 0.0188214 0.0104267 0.0205 0.017975 0.0123701 0.0217583 
0.0205802 0.0125364 0.0215989 0.0227792 0.0128702 0.0210091 0.0208956 0.0131745 0.020699 
0.0192448 0.0138844 0.0205562 0.00400198 0.0153932 0.0207499 0.000876081 0.014394 0.0205 
0.000559993 0.0160483 0.0205 0.00509539 0.0169957 0.0212499 0.00303382 0.0181447 0.0210086 
0.00769746 0.015079 0.0215102 0.00694035 0.0209411 0.0215148 0.00723809 0.0197009 0.022071 
0.0143135 0.0170584 0.0206865 0.0157896 0.0145977 0.0205543 0.00933538 0.0142651 0.0204996 
0.0101443 0.0187608 0.0205032 0.00973843 0.0208548 0.0219998 0.0120873 0.017554 0.0205083 
0.0161962 0.0156566 0.0205 0.0154952 0.0198126 0.0221787 0.0160387 0.017334 0.0208118 
0.0153094 0.0193731 0.0205 0.0134362 0.0195284 0.0205021 0.0103988 0.0157426 0.02075 
0.01444 0.0205776 0.0209999 0.011774 0.0157393 0.0224111 0.0142501 0.0181838 0.0208143 
0.0230817 0.0176686 0.0205 0.0234983 0.0159928 0.0205003 0.0230176 0.0189228 0.0208989 
0.022283 0.0160843 0.020786 0.0181099 0.0173773 0.0220193 0.020641 0.0197182 0.0220169 
0.0179886 0.0203797 0.0217674 0.0228318 0.0149044 0.0219617 0.0222608 0.0211282 0.0205 
0.000551602 0.0222559 0.0205094 0.00705893 0.0241618 0.0205058 0.000762393 0.0265388 0.0209147 
0.00647777 0.0282795 0.0220006 0.00423696 0.0211536 0.0210266 0.000499474 0.0282053 0.0205034 
0.00548859 0.023204 0.0212483 0.00787335 0.0229384 0.0223853 0.008515 0.0236381 0.020832 
0.012504 0.0224604 0.0212897 0.0139473 0.0275881 0.0221254 0.01454 0.0279494 0.0205 
0.0138176 0.0270758 0.0207805 0.023231 0.0251461 0.02075 0.0234123 0.021684 0.0205 
0.0181043 0.0252125 0.0206206 0.0167506 0.0231312 0.0207498 0.0216055 0.0235337 0.0211774 
0.020595 0.0234364 0.0205003 0.0161485 0.0265088 0.0206607 0.017208 0.0272905 0.0205 
0.0166876 0.0271056 0.0223404 0.0189403 0.0221279 0.0208591 0.016555 0.0233462 0.0221303 
0.019212 0.0248109 0.0220027 0.0174367 0.0277698 0.0223881 0.022088 0.0244515 0.0220998 
0.00190138 0.0292394 0.0219419 0.00241078 0.0335556 0.0219998 0.000572363 0.0303407 0.0204997 
0.00626986 0.03088 0.02075 0.000760396 0.0315506 0.02075 0.00514569 0.0321684 0.020804 
0.00641872 0.0350751 0.02075 0.0113525 0.0304931 0.0212499 0.0124928 0.0348718 0.0205 
0.0134009 0.0337137 0.0205 0.0131577 0.0320194 0.0209999 0.013747 0.0349611 0.0207473 
0.0143621 0.0290999 0.022139 0.0152584 0.032225 0.0205 0.0154107 0.0310791 0.0222095 
0.0165918 0.0288069 0.0212451 0.0229833 0.0336086 0.0216411 0.0167427 0.0320762 0.0205 
0.0189182 0.0339503 0.02075 0.0198294 0.0284124 0.0207499 0.0161097 0.0344854 0.0220658 
0.00759711 0.0359822 0.0205 0.00615018 0.0361954 0.0213614 0.00466402 0.0424012 0.0205 
0.0048376 0.0399312 0.0209999 0.00797958 0.0375424 0.02075 0.00237415 0.0361451 0.0205052 
0.00248651 0.0377354 0.0205717 0.00666932 0.0423644 0.0217499 0.00265705 0.0363311 0.0217274 
0.000550217 0.038425 0.0205817 0.00264245 0.0416805 0.0208427 0.00080219 0.0407512 0.0210401 
0.00426464 0.0383588 0.0219345 0.00881642 0.0357917 0.021267 0.0129841 0.0359373 0.0205 
0.0106405 0.0362982 0.0205 0.0151623 0.0383934 0.0205 0.0136156 0.0385171 0.0204999 
0.0142901 0.037999 0.0210326 0.0115913 0.0411632 0.0219998 0.0106245 0.0367509 0.0222069 
0.0166563 0.0421693 0.0207834 0.0183003 0.0406464 0.0205 0.0164767 0.0388831 0.0205 
0.0177348 0.0392258 0.0205 0.0234997 0.0407139 0.0205 0.022471 0.0420698 0.0215888 
0.0234928 0.0403658 0.0219964 0.00111382 0.0430717 0.0210206 0.00273924 0.0430477 0.0205774 
0.00281235 0.0443499 0.02075 0.000582585 0.0494416 0.0207169 0.00278098 0.0484128 0.0223263 
0.00597691 0.045352 0.0209862 0.00492145 0.0494236 0.0207046 0.00828217 0.0477741 0.0207502 
0.00940968 0.04551 0.0205587 0.00906517 0.0487594 0.0205163 0.0109834 0.0454169 0.0205 
0.0115202 0.0482119 0.0217499 0.00969778 0.0467637 0.0207509 0.0140599 0.044621 0.0222498 
0.0101835 0.0462788 0.021939 0.0152822 0.0486861 0.0205 0.0149944 0.0478482 0.0218399 
0.0233809 0.0482274 0.0205 0.0195514 0.0451768 0.0207877 0.0224889 0.0492564 0.021142 
0.0205393 0.0471204 0.0214999 0.0186907 0.0495287 0.0214999 0.0177656 0.0465156 0.0213777 
0.0210135 0.0490718 0.0213523 0.00144582 0.050066 0.0205042 0.000504517 0.0504516 0.0205321 
0.00238911 0.0504412 0.0205049 0.00100132 0.0517228 0.0211549 0.000509993 0.0532041 0.0209506 
0.000499984 0.0541067 0.0205 0.00787917 0.0550368 0.020757 0.00346156 0.0513718 0.0210128 
0.00229735 0.0522101 0.0205106 0.00538595 0.0540279 0.0204993 0.00282805 0.0550099 0.0205029 
0.000582671 0.0551071 0.0205025 0.000965554 0.0550007 0.0217779 0.000823204 0.0562953 0.0208402 
0.00779828 0.0564475 0.0212974 0.0075114 0.0497489 0.0215064 0.00578286 0.0499179 0.0205044 
0.000760083 0.0535995 0.0221208 0.00550338 0.0526888 0.0223026 0.0150449 0.051475 0.0216603 
0.0158062 0.0560536 0.0207894 0.0142138 0.0546851 0.0218313 0.0157458 0.0529263 0.0212993 
0.0232445 0.0507938 0.0207566 0.0162382 0.0496675 0.0205 0.0214119 0.0502644 0.0208624 
0.0234975 0.0519911 0.0205 0.017929 0.0557814 0.0212499 0.0234542 0.0545321 0.0205 
0.0232974 0.0529704 0.0205282 0.0221065 0.0564179 0.0216082 0.020449 0.0530573 0.020531 
0.0173594 0.051849 0.0208097 0.0213806 0.0520205 0.0215153 0.000747246 0.0595881 0.0205031 
0.00160556 0.062619 0.0215181 0.00455927 0.0634327 0.0210002 0.0072352 0.0582035 0.0221086 
0.00493009 0.0617334 0.0211004 0.00404598 0.0586995 0.0217589 0.0067047 0.063401 0.022284 
0.0125816 0.0569244 0.0217319 0.0114109 0.0581926 0.0205079 0.00926836 0.0612719 0.0209286 
0.0135368 0.0623714 0.0205113 0.0121095 0.0593332 0.0208686 0.0135282 0.0583055 0.0210046 
0.0102639 0.0602995 0.0205093 0.0151827 0.0574549 0.0217971 0.014524 0.0607739 0.02175 
0.00893593 0.0593072 0.0209781 0.013079 0.0567378 0.0206569 0.0115548 0.0615978 0.0220882 
0.0101741 0.0573382 0.0222365 0.020401 0.056998 0.0212499 0.023485 0.0571057 0.0205 
0.0225848 0.0584182 0.0212499 0.0229923 0.0606181 0.0209999 0.0234972 0.0619396 0.0205 
0.0212469 0.0606023 0.0205 0.0162868 0.0583657 0.0207522 0.0203129 0.0622603 0.0205 
0.0200604 0.0611137 0.0205137 0.0192764 0.0623115 0.0205 0.0168108 0.0614499 0.0206221 
0.0195833 0.0599081 0.02075 0.0179997 0.0613128 0.021741 0.0173408 0.0585882 0.0224453 
0.000809841 0.0641869 0.0205223 0.00212441 0.0684836 0.0205 0.00309963 0.0700709 0.0205 
0.000752561 0.0648053 0.0216605 0.00101802 0.067195 0.0210108 0.00300575 0.0701494 0.0220262 
0.00102143 0.0699644 0.0209999 0.00431993 0.07066 0.0205 0.00741245 0.068519 0.0205165 
0.00481493 0.0667462 0.0205626 0.0104755 0.068221 0.0205 0.0133689 0.0643854 0.0217498 
0.0106997 0.0706634 0.020749 0.0151829 0.0691275 0.0224805 0.0212713 0.064998 0.0218339 
0.0234678 0.0665578 0.0205204 0.0171764 0.0665317 0.0222872 0.0164056 0.0696464 0.0205273 
0.0175341 0.0693436 0.0212926 0.0230844 0.0690713 0.020795 0.0205009 0.0703013 0.0205 
0.0234848 0.0702194 0.0205 0.0225339 0.0709921 0.0205 0.0197771 0.0681845 0.0205 
0.0217194 0.0700703 0.02075 0.0163939 0.0685572 0.0205106 0.0230874 0.0676052 0.0211224 
0.0210982 0.0672476 0.0207522 0.0227296 0.0710799 0.021725 0.00340726 0.0741814 0.0205 
0.00334183 0.0763254 0.0210039 0.000520396 0.0761724 0.0205 0.0078558 0.0765457 0.0207486 
0.0013037 0.0771381 0.02075 0.00588616 0.0764849 0.0212459 0.00709548 0.0775024 0.0204985 
0.00228664 0.0774974 0.0214341 0.00103258 0.0744697 0.0215242 0.000784713 0.0772269 0.022219 
[...]
POINT_DATA 810
FIELD FieldData 7
id 1 810 int
324 710 100 291 561 368 684 784 199 
32 395 474 282 590 176 364 289 362 
370 783 51 178 161 155 159 204 219 
126 108 333 142 200 340 123 452 544 
518 577 185 61 448 228 274 360 64 
380 89 442 490 527 75 581 588 501 
256 154 98 722 275 121 153 763 427 
401 97 217 307 46 80 556 233 636 
342 171 311 190 319 57 143 192 209 
6 113 293 735 308 49 146 44 13 
137 439 174 35 737 713 592 10 287 
110 62 252 71 591 189 465 43 709 
260 772 800 78 231 330 41 697 350 
719 578 130 70 482 12 180 678 162 
529 508 1 118 611 152 780 42 272 
512 582 279 628 345 400 726 566 523 
557 492 238 36 249 259 534 522 672 
451 269 348 505 54 91 695 261 221 
198 374 353 640 698 285 433 386 3 
423 347 535 366 402 680 519 551 579 
762 247 405 138 328 309 514 453 641 
410 242 268 394 326 650 304 122 354 
265 525 487 712 608 496 40 88 335 
367 533 403 371 8 467 415 485 73 
168 573 499 702 567 357 331 378 244 
165 254 94 264 379 421 105 7 226 
373 705 230 381 446 431 306 227 653 
112 133 470 445 48 186 222 67 258 
785 661 332 263 86 540 140 619 103 
692 147 344 129 81 414 493 502 455 
703 711 396 750 45 179 84 157 104 
271 313 18 255 355 469 38 456 150 
76 299 351 558 243 629 167 187 736 
745 325 26 473 612 191 225 158 235 
408 39 257 14 134 239 404 102 117 
679 418 20 210 149 182 69 443 101 
565 560 22 184 720 744 127 513 302 
464 82 288 87 125 79 195 72 29 
435 498 173 277 206 563 605 398 664 
358 52 141 163 9 329 93 481 234 
655 85 253 312 606 596 388 466 300 
151 28 599 320 509 241 156 798 730 
148 213 25 220 170 34 507 524 16 
598 15 676 701 613 515 723 572 663 
273 459 164 31 160 17 92 202 136 
322 2 281 5 604 290 106 211 724 
47 115 66 365 372 334 486 390 447 
569 392 208 237 488 625 175 436 756 
714 318 549 571 188 677 686 691 30 
764 774 369 542 693 33 77 419 432 
538 172 109 652 659 631 725 90 585 
794 583 323 646 463 399 296 503 673 
59 450 657 715 734 741 786 789 139 
120 212 758 801 688 600 548 19 223 
550 245 576 286 587 700 742 782 685 
476 662 718 500 623 639 747 759 770 
337 315 748 338 483 430 479 412 236 
638 60 406 472 626 494 597 617 624 
627 731 343 752 647 787 675 648 425 
553 144 416 609 717 594 668 740 382 
543 278 99 55 145 316 375 462 506 
545 603 620 669 704 196 409 765 633 
441 570 615 521 733 584 749 754 457 
580 607 305 489 124 471 384 426 504 
554 536 602 739 670 775 792 537 547 
397 37 495 428 682 766 788 11 444 
424 621 674 729 349 776 799 687 526 
517 74 738 531 769 777 797 95 361 
694 276 665 614 251 510 601 634 637 
193 681 475 771 781 194 437 24 218 
768 201 454 346 301 491 574 658 760 
773 791 520 327 484 303 564 649 671 
689 690 707 728 753 562 767 383 116 
417 314 96 270 532 667 708 727 528 
530 642 706 595 181 618 654 438 413 
632 643 696 341 721 352 778 593 716 
586 610 411 480 250 461 477 478 616 
793 205 216 232 761 53 356 267 183 
422 555 651 660 295 795 796 497 135 
114 359 376 511 575 589 666 630 779 
790 321 63 131 541 169 246 266 317 
377 385 645 683 743 440 755 215 107 
56 363 732 757 132 4 197 229 284 
203 50 283 468 539 559 568 644 128 
393 434 387 119 552 546 214 635 68 
65 262 622 420 407 292 248 23 298 
516 207 699 746 336 339 224 280 429 
449 297 111 58 177 294 310 240 389 
458 21 27 166 83 391 460 656 751 
802 803 804 805 806 807 808 809 810 

type 1 810 int
1 1 1 1 1 1 1 1 1 
1 1 1 1 1 1 1 1 1 
1 1 1 1 1 1 1 1 1 
1 1 1 1 1 1 1 1 1 
1 1 1 1 1 1 1 1 1 
1 1 1 1 1 1 1 1 1 
1 1 1 1 1 1 1 1 1 
1 1 1 1 1 1 1 1 1 
1 1 1 1 1 1 1 1 1 
1 1 1 1 1 1 1 1 1 
1 1 1 1 1 1 1 1 1 
1 1 1 1 1 1 1 1 1 
1 1 1 1 1 1 1 1 1 
1 1 1 1 1 1 1 1 1 
1 1 1 1 1 1 1 1 1 
1 1 1 1 1 1 1 1 1 
1 1 1 1 1 1 1 1 1 
1 1 1 1 1 1 1 1 1 
1 1 1 1 1 1 1 1 1 
1 1 1 1 1 1 1 1 1 
1 1 1 1 1 1 1 1 1 
1 1 1 1 1 1 1 1 1 
1 1 1 1 1 1 1 1 1 
1 1 1 1 1 1 1 1 1 
1 1 1 1 1 1 1 1 1 
1 1 1 1 1 1 1 1 1 
1 1 1 1 1 1 1 1 1 
1 1 1 1 1 1 1 1 1 
1 1 1 1 1 1 1 1 1 
1 1 1 1 1 1 1 1 1 
1 1 1 1 1 1 1 1 1 
1 1 1 1 1 1 1 1 1 
1 1 1 1 1 1 1 1 1 
1 1 1 1 1 1 1 1 1 
1 1 1 1 1 1 1 1 1 
1 1 1 1 1 1 1 1 1 
1 1 1 1 1 1 1 1 1 
1 1 1 1 1 1 1 1 1 
1 1 1 1 1 1 1 1 1 
1 1 1 1 1 1 1 1 1 
1 1 1 1 1 1 1 1 1 
1 1 1 1 1 1 1 1 1 
1 1 1 1 1 1 1 1 1 
1 1 1 1 1 1 1 1 1 
1 1 1 1 1 1 1 1 1 
1 1 1 1 1 1 1 1 1 
1 1 1 1 1 1 1 1 1 
1 1 1 1 1 1 1 1 1 
1 1 1 1 1 1 1 1 1 
1 1 1 1 1 1 1 1 1 
1 1 1 1 1 1 1 1 1 
1 1 1 1 1 1 1 1 1 
1 1 1 1 1 1 1 1 1 
1 1 1 1 1 1 1 1 1 
1 1 1 1 1 1 1 1 1 
1 1 1 1 1 1 1 1 1 
1 1 1 1 1 1 1 1 1 
1 1 1 1 1 1 1 1 1 
1 1 1 1 1 1 1 1 1 
1 1 1 1 1 1 1 1 1 
1 1 1 1 1 1 1 1 1 
1 1 1 1 1 1 1 1 1 
1 1 1 1 1 1 1 1 1 
1 1 1 1 1 1 1 1 1 
1 1 1 1 1 1 1 1 1 
1 1 1 1 1 1 1 1 1 
1 1 1 1 1 1 1 1 1 
1 1 1 1 1 1 1 1 1 
1 1 1 1 1 1 1 1 1 
1 1 1 1 1 1 1 1 1 
1 1 1 1 1 1 1 1 1 
1 1 1 1 1 1 1 1 1 
1 1 1 1 1 1 1 1 1 
1 1 1 1 1 1 1 1 1 
1 1 1 1 1 1 1 1 1 
1 1 1 1 1 1 1 1 1 
1 1 1 1 1 1 1 1 1 
1 1 1 1 1 1 1 1 1 
1 1 1 1 1 1 1 1 1 
1 1 1 1 1 1 1 1 1 
1 1 1 1 1 1 1 1 1 
1 1 1 1 1 1 1 1 1 
1 1 1 1 1 1 1 1 1 
1 1 1 1 1 1 1 1 1 
1 1 1 1 1 1 1 1 1 
1 1 1 1 1 1 1 1 1 
1 1 1 1 1 1 1 1 1 
1 1 1 1 1 1 1 1 1 
1 1 1 1 1 1 1 1 1 
1 1 1 1 1 1 1 1 1 

i 3 810 int
0 0 0 0 0 0 0 0 0 
0 0 0 0 0 0 0 0 0 
0 0 0 0 0 0 0 0 0 
0 0 0 0 0 0 0 0 0 
0 0 0 0 0 0 0 0 0 
0 0 0 0 0 0 0 0 0 
0 0 0 0 0 0 0 0 0 
0 0 0 0 0 0 0 0 0 
0 0 0 0 0 0 0 0 0 
0 0 0 0 0 0 0 0 0 
0 0 0 0 0 0 0 0 0 
0 0 0 0 0 0 0 0 0 
0 0 0 0 0 0 0 0 0 
0 0 0 0 0 0 0 0 0 
0 0 0 0 0 0 0 0 0 
0 0 0 0 0 0 0 0 0 
0 0 0 0 0 0 0 0 0 
0 0 0 0 0 0 0 0 0 
0 0 0 0 0 0 0 0 0 
0 0 0 0 0 0 0 0 0 
0 0 0 0 0 0 0 0 0 
0 0 0 0 0 0 0 0 0 
0 0 0 0 0 0 0 0 0 
0 0 0 0 0 0 0 0 0 
0 0 0 0 0 0 0 0 0 
0 0 0 0 0 0 0 0 0 
0 0 0 0 0 0 0 0 0 
0 0 0 0 0 0 0 0 0 
0 0 0 0 0 0 0 0 0 
0 0 0 0 0 0 0 0 0 
0 0 0 0 0 0 0 0 0 
0 0 0 0 0 0 0 0 0 
0 0 0 0 0 0 0 0 0 
0 0 0 0 0 0 0 0 0 
0 0 0 0 0 0 0 0 0 
0 0 0 0 0 0 0 0 0 
0 0 0 0 0 0 0 0 0 
0 0 0 0 0 0 0 0 0 
0 0 0 0 0 0 0 0 0 
0 0 0 0 0 0 0 0 0 
0 0 0 0 0 0 0 0 0 
0 0 0 0 0 0 0 0 0 
0 0 0 0 0 0 0 0 0 
0 0 0 0 0 0 0 0 0 
0 0 0 0 0 0 0 0 0 
0 0 0 0 0 0 0 0 0 
0 0 0 0 0 0 0 0 0 
0 0 0 0 0 0 0 0 0 
0 0 0 0 0 0 0 0 0 
0 0 0 0 0 0 0 0 0 
0 0 0 0 0 0 0 0 0 
0 0 0 0 0 0 0 0 0 
0 0 0 0 0 0 0 0 0 
0 0 0 0 0 0 0 0 0 
0 0 0 0 0 0 0 0 0 
0 0 0 0 0 0 0 0 0 
0 0 0 0 0 0 0 0 0 
0 0 0 0 0 0 0 0 0 
0 0 0 0 0 0 0 0 0 
0 0 0 0 0 0 0 0 0 
0 0 0 0 0 0 0 0 0 
0 0 0 0 0 0 0 0 0 
0 0 0 0 0 0 0 0 0 
0 0 0 0 0 0 0 0 0 
0 0 0 0 0 0 0 0 0 
0 0 0 0 0 0 0 0 0 
0 0 0 0 0 0 0 0 0 
0 0 0 0 0 0 0 0 0 
0 0 0 0 0 0 0 0 0 
0 0 0 0 0 0 0 0 0 
0 0 0 0 0 0 0 0 0 
0 0 0 0 0 0 0 0 0 
0 0 0 0 0 0 0 0 0 
0 0 0 0 0 0 0 0 0 
0 0 0 0 0 0 0 0 0 
0 0 0 0 0 0 0 0 0 
0 0 0 0 0 0 0 0 0 
0 0 0 0 0 0 0 0 0 
0 0 0 0 0 0 0 0 0 
0 0 0 0 0 0 0 0 0 
0 0 0 0 0 0 0 0 0 
0 0 0 0 0 0 0 0 0 
0 0 0 0 0 0 0 0 0 
0 0 0 0 0 0 0 0 0 
0 0 0 0 0 0 0 0 0 
0 0 0 0 0 0 0 0 0 
0 0 0 0 0 0 0 0 0 
0 0 0 0 0 0 0 0 0 
0 0 0 0 0 0 0 0 0 
0 0 0 0 0 0 0 0 0 
0 0 0 0 0 0 0 0 0 
0 0 0 0 0 0 0 0 0 
0 0 0 0 0 0 0 0 0 
0 0 0 0 0 0 0 0 0 
0 0 0 0 0 0 0 0 0 
0 0 0 0 0 0 0 0 0 
0 0 0 0 0 0 0 0 0 
0 0 0 0 0 0 0 0 0 
0 0 0 0 0 0 0 0 0 
0 0 0 0 0 0 0 0 0 
0 0 0 0 0 0 0 0 0 
0 0 0 0 0 0 0 0 0 
0 0 0 0 0 0 0 0 0 
0 0 0 0 0 0 0 0 0 
0 0 0 0 0 0 0 0 0 
0 0 0 0 0 0 0 0 0 
0 0 0 0 0 0 0 0 0 
0 0 0 0 0 0 0 0 0 
0 0 0 0 0 0 0 0 0 
0 0 0 0 0 0 0 0 0 
0 0 0 0 0 0 0 0 0 
0 0 0 0 0 0 0 0 0 
0 0 0 0 0 0 0 0 0 
0 0 0 0 0 0 0 0 0 
0 0 0 0 0 0 0 0 0 
0 0 0 0 0 0 0 0 0 
0 0 0 0 0 0 0 0 0 
0 0 0 0 0 0 0 0 0 
0 0 0 0 0 0 0 0 0 
0 0 0 0 0 0 0 0 0 
0 0 0 0 0 0 0 0 0 
0 0 0 0 0 0 0 0 0 
0 0 0 0 0 0 0 0 0 
0 0 0 0 0 0 0 0 0 
0 0 0 0 0 0 0 0 0 
0 0 0 0 0 0 0 0 0 
0 0 0 0 0 0 0 0 0 
0 0 0 0 0 0 0 0 0 
0 0 0 0 0 0 0 0 0 
0 0 0 0 0 0 0 0 0 
0 0 0 0 0 0 0 0 0 
0 0 0 0 0 0 0 0 0 
0 0 0 0 0 0 0 0 0 
0 0 0 0 0 0 0 0 0 
0 0 0 0 0 0 0 0 0 
0 0 0 0 0 0 0 0 0 
0 0 0 0 0 0 0 0 0 
0 0 0 0 0 0 0 0 0 
0 0 0 0 0 0 0 0 0 
0 0 0 0 0 0 0 0 0 
0 0 0 0 0 0 0 0 0 
0 0 0 0 0 0 0 0 0 
0 0 0 0 0 0 0 0 0 
0 0 0 0 0 0 0 0 0 
0 0 0 0 0 0 0 0 0 
0 0 0 0 0 0 0 0 0 
0 0 0 0 0 0 0 0 0 
0 0 0 0 0 0 0 0 0 
0 0 0 0 0 0 0 0 0 
0 0 0 0 0 0 0 0 0 
0 0 0 0 0 0 0 0 0 
0 0 0 0 0 0 0 0 0 
0 0 0 0 0 0 0 0 0 
0 0 0 0 0 0 0 0 0 
0 0 0 0 0 0 0 0 0 
0 0 0 0 0 0 0 0 0 
0 0 0 0 0 0 0 0 0 
0 0 0 0 0 0 0 0 0 
0 0 0 0 0 0 0 0 0 
0 0 0 0 0 0 0 0 0 
0 0 0 0 0 0 0 0 0 
0 0 0 0 0 0 0 0 0 
0 0 0 0 0 0 0 0 0 
0 0 0 0 0 0 0 0 0 
0 0 0 0 0 0 0 0 0 
0 0 0 0 0 0 0 0 0 
0 0 0 0 0 0 0 0 0 
0 0 0 0 0 0 0 0 0 
0 0 0 0 0 0 0 0 0 
0 0 0 0 0 0 0 0 0 
0 0 0 0 0 0 0 0 0 
0 0 0 0 0 0 0 0 0 
0 0 0 0 0 0 0 0 0 
0 0 0 0 0 0 0 0 0 
0 0 0 0 0 0 0 0 0 
0 0 0 0 0 0 0 0 0 
0 0 0 0 0 0 0 0 0 
0 0 0 0 0 0 0 0 0 
0 0 0 0 0 0 0 0 0 
0 0 0 0 0 0 0 0 0 
0 0 0 0 0 0 0 0 0 
0 0 0 0 0 0 0 0 0 
0 0 0 0 0 0 0 0 0 
0 0 0 0 0 0 0 0 0 
0 0 0 0 0 0 0 0 0 
0 0 0 0 0 0 0 0 0 
0 0 0 0 0 0 0 0 0 
0 0 0 0 0 0 0 0 0 
0 0 0 0 0 0 0 0 0 
0 0 0 0 0 0 0 0 0 
0 0 0 0 0 0 0 0 0 
0 0 0 0 0 0 0 0 0 
0 0 0 0 0 0 0 0 0 
0 0 0 0 0 0 0 0 0 
0 0 0 0 0 0 0 0 0 
0 0 0 0 0 0 0 0 0 
0 0 0 0 0 0 0 0 0 
0 0 0 0 0 0 0 0 0 
0 0 0 0 0 0 0 0 0 
0 0 0 0 0 0 0 0 0 
0 0 0 0 0 0 0 0 0 
0 0 0 0 0 0 0 0 0 
0 0 0 0 0 0 0 0 0 
0 0 0 0 0 0 0 0 0 
0 0 0 0 0 0 0 0 0 
0 0 0 0 0 0 0 0 0 
0 0 0 0 0 0 0 0 0 
0 0 0 0 0 0 0 0 0 
0 0 0 0 0 0 0 0 0 
0 0 0 0 0 0 0 0 0 
0 0 0 0 0 0 0 0 0 
0 0 0 0 0 0 0 0 0 
0 0 0 0 0 0 0 0 0 
0 0 0 0 0 0 0 0 0 
0 0 0 0 0 0 0 0 0 
0 0 0 0 0 0 0 0 0 
0 0 0 0 0 0 0 0 0 
0 0 0 0 0 0 0 0 0 
0 0 0 0 0 0 0 0 0 
0 0 0 0 0 0 0 0 0 
0 0 0 0 0 0 0 0 0 
0 0 0 0 0 0 0 0 0 
0 0 0 0 0 0 0 0 0 
0 0 0 0 0 0 0 0 0 
0 0 0 0 0 0 0 0 0 
0 0 0 0 0 0 0 0 0 
0 0 0 0 0 0 0 0 0 
0 0 0 0 0 0 0 0 0 
0 0 0 0 0 0 0 0 0 
0 0 0 0 0 0 0 0 0 
0 0 0 0 0 0 0 0 0 
0 0 0 0 0 0 0 0 0 
0 0 0 0 0 0 0 0 0 
0 0 0 0 0 0 0 0 0 
0 0 0 0 0 0 0 0 0 
0 0 0 0 0 0 0 0 0 
0 0 0 0 0 0 0 0 0 
0 0 0 0 0 0 0 0 0 
0 0 0 0 0 0 0 0 0 
0 0 0 0 0 0 0 0 0 
0 0 0 0 0 0 0 0 0 
0 0 0 0 0 0 0 0 0 
0 0 0 0 0 0 0 0 0 
0 0 0 0 0 0 0 0 0 
0 0 0 0 0 0 0 0 0 
0 0 0 0 0 0 0 0 0 
0 0 0 0 0 0 0 0 0 
0 0 0 0 0 0 0 0 0 
0 0 0 0 0 0 0 0 0 
0 0 0 0 0 0 0 0 0 
0 0 0 0 0 0 0 0 0 
0 0 0 0 0 0 0 0 0 
0 0 0 0 0 0 0 0 0 
0 0 0 0 0 0 0 0 0 
0 0 0 0 0 0 0 0 0 
0 0 0 0 0 0 0 0 0 
0 0 0 0 0 0 0 0 0 
0 0 0 0 0 0 0 0 0 
0 0 0 0 0 0 0 0 0 
0 0 0 0 0 0 0 0 0 
0 0 0 0 0 0 0 0 0 
0 0 0 0 0 0 0 0 0 
0 0 0 0 0 0 0 0 0 
0 0 0 0 0 0 0 0 0 
0 0 0 0 0 0 0 0 0 
0 0 0 0 0 0 0 0 0 
0 0 0 0 0 0 0 0 0 
0 0 0 0 0 0 0 0 0 
0 0 0 0 0 0 0 0 0 
0 0 0 0 0 0 0 0 0 

v 3 810 double
0.620795 -0.49095 0.00126529 0 0 -0.47527 -1.44761 -6.34134 1.44266 
0.893852 0.0965682 -2.57013 0 0 -1.1448 0.243284 -6.93954 -0.086018 
-4.27081 2.20488 2.85823 0 0 -0.143201 6.5509 1.94803 0.0126646 
-1.45009 2.38723 0.432963 0.357048 -0.951776 -0.123279 2.05337 -1.6112 0.0398713 
-0.80979 -2.3747 -0.701351 -0.440891 -1.23552 1.59595e-11 7.87702 0.158857 1.1188 
8.1368 1.93711 1.22473 2.80013 -5.2908 -0.693479 -1.08568 -2.64469 -1.78695 
1.14138 0.3445 -6.08644 0 0 -0.145163 -1.71976 -0.645936 -2.43715e-11 
-1.95828 0.0661662 8.35386e-12 -0.00279456 0.172635 0.0179364 -0.188489 -0.918387 0.341464 
4.28163 2.14243 -0.0514614 4.07968 1.20811 0.126991 -0.213571 3.23526 0.0518935 
-1.00462 -0.819724 0.156645 -0.283266 0.00402002 0.000152614 2.19353 2.02887 0.868333 
-0.583359 0.608799 0.164161 1.82842 -1.81859 0.461665 0.0438284 3.5526 0.0627614 
2.8179 -0.327924 2.81932 2.35276 4.19228 -0.185274 0.138125 0.304483 1.93117 
0.650835 0.187844 -1.86693 -0.0577414 1.2607 2.7326 -0.722944 -3.35343 0.0311778 
-0.133449 -3.51751 0.528853 0.22292 -0.824698 -0.0185031 3.87191 -11.0579 2.06502 
-0.11808 -1.24967 -0.000954278 1.84895 -1.34596 -2.98712e-11 -2.15078 -5.0699 3.17317 
-0.429142 -1.01266 1.9063e-05 8.11374 -10.5538 1.23688 0.532875 -0.683755 -0.0397421 
-1.40029 -21.7389 2.05253 0.107619 0.0493064 -1.28734 -0.743509 -1.21624 0.00236403 
6.58224 -0.656209 0.365609 -5.48924 -4.52006 -2.94275 5.131 -8.12784 1.28783 
-1.25596 -1.13204 0.128843 0.0987194 0.10628 1.27119 0.135515 -1.44018 0.29556 
0 0 -0.408807 1.06083 -1.2303 1.77781 0.00613671 -2.13968 -0.181615 
4.63799 -15.6702 -6.99943 0 0 -0.243263 -0.008523 -1.55978 -3.41731 
-0.873283 1.25872 1.56779 -0.837797 -1.32794 0.384134 -4.39885 -1.78514 0.447293 
-0.117511 -2.49597 -0.269403 -1.65664 -0.831011 0.0169158 3.23733 0.100817 0.0489046 
0.929598 -1.95677 0.115702 -3.81493 -4.82494 -0.559533 -0.89543 -2.18477 6.01782e-05 
1.26876 -1.73394 0.515975 -1.91483 -1.26601 0.0286002 0.457829 -2.44642 0.264513 
0.0441277 0.0171193 0.181086 4.38457 -2.73012 -9.70569e-12 -0.0722101 0.278361 -0.0106541 
-0.138889 -3.88872 -0.103925 -0.631233 -0.827713 0.0563175 -0.535403 -1.7369 -1.28776e-10 
0.452447 -2.05046 -2.24769 2.152 -4.3624 2.97088e-11 0.631134 -3.95183 0.000502196 
0 0 -0.354852 -0.981207 -7.12351 -0.0266977 0.826788 -6.83272 -0.29847 
2.25172 -3.74774 0.583111 2.25569 0.640737 0.303622 0.288188 -3.38924 -2.89546e-11 
0.0500474 -3.62821 -3.35377e-11 -1.29001 -2.08236 2.4897e-11 2.24295 1.89558 0.122652 
0.00497764 -2.49914 0.304306 0 0 -0.34774 -1.20615 0.774381 -2.85849 
4.26292 6.93798 -0.377804 1.83323 -1.99275 0.409999 1.55216 -2.04553 -0.126246 
3.58088 0.316369 0.163079 0.793433 -0.0164464 -0.0488099 -0.0716491 -2.31491 0.173059 
4.69956 -1.4398 -0.000634053 1.71163 -0.768615 -0.366468 11.2175 4.03246 -0.981569 
2.7085 -2.55302 4.96015e-12 1.49146 -3.57503 -0.0726225 0 0 -2.56437e-11 
1.25396 -3.01996 4.55739e-05 0 0 -0.20059 0 0 -0.0588355 
-0.456405 -3.65085 -7.74028e-05 -0.124398 -1.53309 0.0164385 -0.664112 -3.58844 0.254026 
-0.467581 -0.878227 -1.02992 0 0 -0.538299 -2.84652 -2.6178 -0.841162 
0 0 -0.413467 -0.183338 -3.16842 -2.98964 -0.268306 -1.52557 1.22931e-11 
0.495133 -2.25732 0.0329749 0 0 0.0835473 0.180875 -2.05322 0.173211 
-1.05926 1.65952 -0.229746 -1.9117 -2.87878 0.087025 0.0308252 -0.404049 0.00231796 
-1.20534 -0.96614 -2.93226 -0.638285 -0.845583 -2.11616 -1.13711 0.865422 -0.146407 
1.52296 -1.01496 -0.262291 -0.0664064 1.79248 -1.16988 -1.09082 -1.54473 -6.96596e-11 
0 0 -0.159878 0.0355702 0.311632 3.77727e-12 -0.101981 -1.35039 2.05426e-11 
0.569966 1.98992 0.757417 0 0 -0.0329792 9.5256 -4.07533 2.40957 
8.8982 -5.31948 -0.0544614 -1.06025 -3.05797 -0.946678 -0.830972 -2.26503 2.97087e-11 
-0.628078 -0.719913 -0.47301 1.29552 -0.193534 0.611537 0 0 -1.33168 
2.74427 2.91451 -1.20326 -0.705769 -0.263433 -1.72927 -0.573316 -1.56878 -3.56775 
0.305704 -0.462111 -0.215107 -1.9389 0.749588 1.76823e-05 -0.742738 -2.00854 -0.39507 
-1.44505 0.0928677 2.33912e-11 0.0788209 -2.42222 0.00559074 -0.459733 -0.220157 0.590399 
-3.32776 4.2904 -1.17454e-07 -2.02833 -0.667079 -7.13826e-12 -2.81312 0.851705 -5.39538e-13 
-0.80112 0.649529 6.79338e-12 -2.82255 -0.343075 4.01745e-11 -15.7232 0.617017 1.41708 
-9.06042 -21.1857 -0.891783 -2.03264 -1.96009 1.04598e-11 -10.1718 -15.6283 1.508 
1.95735 -11.0425 -0.914015 -0.686288 -0.918749 1.71475 -0.884425 -3.22845 -1.33721e-11 
-1.01994 0.223633 4.43271e-12 0 0 0.0753625 -19.1779 -8.29851 6.57624 
-1.75817 4.16626 2.05426e-11 -4.13323 3.96422 1.19395 -1.66641 1.38619 3.33752e-11 
-0.673844 -0.121053 1.9514e-11 0.571769 0.115753 5.81009e-05 -0.271876 0.115409 -0.0150187 
-3.18326 -0.765936 -0.333865 -1.46905 1.69502 -8.5199e-12 -0.0779946 0.925821 0.00825722 
-0.457988 0.631922 0.48406 -0.132846 4.27088 0.564266 0.231599 1.34181 -5.28326 
0 0 -0.24449 -0.979863 2.27802 -3.11299 -1.95933 1.259 -6.29466e-10 
0 0 -2.71214e-11 0.650247 0.8145 1.13765e-11 -0.694596 0.102001 0.0380093 
0.0538308 0.487619 -0.603984 -0.19485 1.85675 4.73818e-05 0.45886 1.8883 -0.886904 
1.18593 2.30097 -2.34864 0 0 -2.8038e-11 0 0 -3.07878e-11 
0 0 1.59595e-11 -0.0129051 -1.60487 1.32075e-07 0.548555 -1.13414 0.115005 
-0.0763962 -2.72863 -2.4186 0.38116 6.12436 -0.0434113 0.374507 4.5146 0.245125 
-0.0588895 4.9475 4.70797e-08 0.471371 1.67056 0.665204 -0.858101 0.226472 1.29024 
0 0 -0.462272 1.66628 -3.06643 1.90206 1.38864 0.667946 0.0533697 
0.200638 1.62544 -0.242322 2.34452 1.93391 -0.477669 0 0 -4.206e-12 
-0.572396 1.10861 2.26307e-09 1.3691 1.47636 -0.123356 0.838838 1.19365 -8.33998e-07 
0.330101 -0.0211171 0.24448 -2.30941 -0.888376 -4.206e-12 0.484133 1.86765 -3.26004 
-0.155434 5.74588 -2.43715e-11 1.72437 0.46952 -0.497927 -0.762388 4.8475 0.000708426 
1.09193 0.964453 5.96993e-06 0.831579 0.931844 1.91121e-09 0.49336 1.36171 -1.6582 
-0.614407 1.30645 -0.483668 -2.31211 -15.5558 0.206051 0.851871 2.58936 1.31964 
-5.00017 0.516979 1.06181 0.220076 1.92701 -0.801486 0.351315 3.49898 -0.27588 
-0.00167096 3.93066 -0.00167874 3.38902 2.61974 0.0447717 -6.03671 4.93864 0.427632 
-0.863745 16.6644 0.82308 -0.200394 3.33516 0.172006 2.6274 3.4418 -0.439169 
-0.427646 4.0165 0.0339316 -1.50512 10.0688 -1.80203 0.404327 4.19844 -0.429548 
3.14054 3.16999 -0.892915 0.164856 0.279229 0.172957 -0.0293845 0.811468 0.175995 
0.181536 8.36485 -1.19303 -3.57017 2.51092 0.0119349 3.43659 0.743736 0.800056 
9.28697 5.69853 0.474774 10.7636 3.96728 3.68372 0 0 -0.698693 
-0.00941202 4.56097 -0.0106642 1.17173 -2.47102 -2.52881e-11 -2.74554 2.76819 -0.861813 
-0.0281946 4.55247 -0.00183006 0.856301 1.53201 1.83168e-12 -0.00118861 1.7076 3.24586e-11 
-0.393863 4.45558 0.166041 0.822467 1.38321 -0.118492 1.93927 -0.705909 0.268587 
0 0 -0.136334 0 0 -12.4123 -0.45941 1.15517 -0.381912 
-0.236416 2.79582 0.0469804 0.824716 1.8506 0.0794883 3.65629 2.6025 1.44471 
2.92791 1.23848 -0.912133 -1.40226 -1.30448 -2.71354 2.46827 0.623636 -2.40795 
2.81825 3.86576 -1.86523 -2.73622 -1.76658 0.00450651 2.33588 0.297918 0.342837 
7.60436 -1.33348 -1.57973 0.166443 -1.929 0.367851 0.544893 -1.64634 -0.0178432 
1.62475 -1.64491 -0.0295225 0.546711 -1.30008 0.606934 4.09403 -2.9203 0.0268282 
0 0 -0.512548 -0.196629 -2.51862 -0.856195 2.83921 -4.17652 1.27477 
0.0943785 -3.20051 0.00620926 0.517115 1.33762 0.00121091 -0.0307147 1.89298 1.04598e-11 
0.335505 2.10704 -1.46645e-05 0.000281587 2.19443 -0.000587024 -0.0174962 2.209 -3.21509e-06 
-0.459462 1.46343 2.87921e-11 -0.919412 0.496235 -0.0256499 -1.96993 3.13838 3.74671e-10 
-0.991505 2.6435 0.0352647 1.95714 2.6114 1.68761e-11 0.186128 1.595 -0.194204 
-0.777106 2.48909 0.000147303 -3.56461 6.79176 -0.845621 -0.797943 0.733977 -0.0491845 
-2.04168 2.45772 0.264209 -0.328693 1.26454 0.00666575 1.9087 2.32786 1.68761e-11 
0.0368797 1.07434 2.14212 0.153983 -1.74658 0.0484855 0 0 -0.844371 
0.0916204 -0.0168967 -2.7874e-09 2.02477 -0.376103 -3.35377e-11 0 0 -0.349211 
0 0 -0.31831 0.00109458 1.76059 0.00372896 3.37131 -1.83094 0.0129998 
2.52541 3.42648 0.37163 -5.46172 6.69747 0.0558833 -1.87365 6.89417 -1.1499 
-0.122819 9.93517 -0.046142 -3.06538 6.09162 -0.287883 -0.129493 4.38937 0.282868 
1.08918 5.73439 -0.987451 0.12559 2.26061 -0.18395 0.189669 3.26394 -1.24555e-11 
0.0383098 2.3627 -1.09406e-05 -0.186428 2.87242 1.68761e-11 -0.925851 1.84624 -2.52881e-11 
0.14809 2.51287 1.18512e-11 -3.19562 2.92477 0.122823 -0.127092 1.99944 -1.06291 
0.720051 8.19274 0.321691 -0.148258 1.37435 -0.643207 1.89988 0.453086 -2.25383e-11 
2.35762 0.260417 -0.747958 0.0196969 0.240267 -1.18523e-07 0.322675 0.848884 0.0913725 
0.834095 -0.412326 -0.00153158 -1.90627 -0.240473 -0.987316 -1.01025 -0.102188 0.112424 
1.48835 -0.0677887 -1.07945 -1.52279 2.75322 -6.88671 0.152832 -0.101852 -0.104953 
0.503295 2.9002 -3.67394 0 0 -0.410769 0.194055 0.814189 -7.68661 
3.25555 7.95248 0.77835 2.03231 0.856798 -0.581099 3.4504 1.90238 0.1209 
1.88474 2.13541 -0.884806 0.243554 0.956181 0.468593 1.57274 4.03733 -7.19011e-11 
0.227227 -0.077952 -0.0324818 0.0942015 0.588819 -1.79552e-11 -0.592276 -1.10254 0.0571286 
0.49019 -0.00568745 5.52928e-05 0.229544 0.0677191 1.03713 -1.84121 -0.00891007 0.648902 
3.02093 1.91015 -0.133895 -0.324858 -1.49424 0.272496 0.733024 -0.0304877 -0.0891601 
1.77991 -0.0417817 -1.6122e-11 0.838692 0.857444 0.157299 0.640746 -0.538118 -2.25383e-11 
1.61405 0.759391 -0.746178 4.45425 0.860233 0.149185 0 0 -0.67147 
7.16294 3.91756 -0.107866 0.427058 3.73866 -1.81639 1.21591 -0.638087 -4.98298 
0.0252622 1.68184 -6.95584e-12 0.821225 2.53915 0.0175006 1.18364 3.08798 -1.10134 
0.115614 -0.836334 0.132757 -0.427931 3.29246 0.229427 -0.749189 0.966057 0.0528431 
0 0 -0.683487 -0.128554 -0.252444 -0.245855 1.90124 -0.193577 -1.97526 
-1.22004 3.78722 0.324078 2.43108 4.17566 -1.1885 -0.711397 0.0979367 -0.33382 