# vtk DataFile Version 4.0
Generated by LIGGGHTS
ASCII
DATASET POLYDATA
POINTS 867 float
0.00383193 0.00478027 0.0219999 0.00786112 0.00245503 0.0205033 0.00692262 0.000649288 0.0213115 
0.00267207 0.00150602 0.0215063 0.00722851 0.0048335 0.0218064 0.000744666 0.00366137 0.0205 
0.00495522 0.00213348 0.021619 0.00790593 0.00499056 0.0204999 0.00701735 0.00342599 0.0209221 
0.00456491 0.00051264 0.0211126 0.00162679 0.00377826 0.020992 0.00392253 0.00678955 0.0204992 
0.00766365 0.00675151 0.0224166 0.00286482 0.006759 0.0205 0.00729845 0.00600094 0.0207023 
0.00110825 0.000513871 0.0223628 0.00614922 0.00693979 0.0210868 0.0126789 0.00160487 0.0205129 
0.0113924 0.00333769 0.0205 0.0140488 0.00100976 0.0207502 0.0126195 0.00468075 0.0208641 
0.010798 0.00235842 0.0205854 0.0131131 0.000511889 0.0214336 0.0119561 0.0011466 0.0214718 
0.0150146 0.0041826 0.0205 0.00918684 0.000900105 0.0214383 0.00898141 0.00382926 0.020895 
0.0113982 0.00345892 0.021722 0.0157909 0.00354209 0.0205 0.00995601 0.00512501 0.0210096 
0.010054 0.00650646 0.0205088 0.00869168 0.00504558 0.0211164 0.0137515 0.00678056 0.0205 
0.00906041 0.0064072 0.021011 0.0149803 0.0069764 0.0207498 0.0148339 0.00154666 0.0223473 
0.0180861 0.0008271 0.02075 0.02325 0.000818384 0.02075 0.0161775 0.00256853 0.021906 
0.0224818 0.00399986 0.0204998 0.0234341 0.00369532 0.0205051 0.0215726 0.00287708 0.0209999 
0.0164448 0.0054046 0.0215002 0.0184422 0.00339663 0.0212492 0.0224948 0.00433893 0.0217895 
0.0232288 0.00235052 0.02075 0.0214742 0.00469546 0.0207499 0.0232501 0.00511236 0.0207499 
0.0234994 0.00631199 0.0205006 0.0204064 0.00385421 0.0220928 0.0197311 0.00553777 0.0212493 
0.0182143 0.00596762 0.022315 0.0183084 0.00495945 0.0221517 0.0200391 0.00149869 0.022434 
0.0062547 0.0114666 0.0205 0.00431495 0.0129087 0.0205 0.00348112 0.00978123 0.0220482 
0.00665388 0.0124002 0.0205 0.00173624 0.00763706 0.0212293 0.00267637 0.00881531 0.0205486 
0.00110477 0.00957457 0.02075 0.000679218 0.00886447 0.0217151 0.00536596 0.0124135 0.021222 
0.00155642 0.0121616 0.0215807 0.00181055 0.00978596 0.0223066 0.00770141 0.0125191 0.0205 
0.00304063 0.0109754 0.0207419 0.00500594 0.0141661 0.0224733 0.000808203 0.0136986 0.0205083 
0.000966411 0.0103487 0.0224 0.0107349 0.00963202 0.0208292 0.0102593 0.00840377 0.0218407 
0.0103298 0.00779207 0.0205 0.0141526 0.00844338 0.02075 0.0155951 0.0106751 0.0209988 
0.00885265 0.0118454 0.0207683 0.00991527 0.012755 0.0213614 0.00994923 0.013716 0.0205083 
0.0156617 0.00800639 0.0205 0.0121011 0.0101247 0.0213213 0.0167096 0.00891001 0.0212717 
0.0210734 0.0093742 0.02075 0.0215766 0.0106155 0.0205008 0.0223605 0.00745389 0.021685 
0.0233908 0.00886187 0.0205676 0.0174989 0.00734009 0.02075 0.0226876 0.0100524 0.0213387 
0.0196242 0.00879226 0.0205 0.0182344 0.0113563 0.0217503 0.0207648 0.0123092 0.021317 
0.0221918 0.011968 0.0209999 0.02077 0.0112513 0.0205013 0.020031 0.0125082 0.0206628 
0.0207249 0.0114089 0.0220364 0.0164771 0.0138504 0.0206391 0.0228064 0.0138993 0.0210146 
0.00433257 0.0149366 0.02075 0.000506588 0.014674 0.0205356 0.00505797 0.0167397 0.0213011 
0.00320127 0.018456 0.0209996 0.00769653 0.0141946 0.021592 0.00694035 0.0209411 0.0213154 
0.00678579 0.0199913 0.0209301 0.00587302 0.0208494 0.021767 0.000727478 0.0207503 0.0205349 
0.00203374 0.0158611 0.0221191 0.00107419 0.0190939 0.0215107 0.0156578 0.0181446 0.0205407 
0.0114868 0.0188793 0.0205001 0.0100055 0.02086 0.0219998 0.0120605 0.0166859 0.0205042 
0.0135014 0.0188448 0.0205 0.0103988 0.0157426 0.02075 0.0148515 0.0195885 0.0209999 
0.0119078 0.0159599 0.0221354 0.0146355 0.0180333 0.0210626 0.0144942 0.0157951 0.0224297 
0.0163184 0.0193668 0.0221577 0.0166042 0.0187659 0.0205 0.0179546 0.0151189 0.0205 
0.018261 0.0176737 0.0205609 0.0230414 0.0164454 0.0205019 0.0234508 0.015414 0.0205 
0.0227659 0.0175924 0.0209327 0.0220951 0.0156502 0.02075 0.0181099 0.0173773 0.0217484 
0.0196405 0.0187795 0.021692 0.0179886 0.0203797 0.0215434 0.0221602 0.0205561 0.0205 
0.0183039 0.0145516 0.0222738 0.0234716 0.0207776 0.0205 0.00276696 0.022383 0.020999 
0.000726919 0.0218348 0.0205 0.00690603 0.024185 0.0205 0.000830222 0.0257688 0.0209107 
0.000518314 0.028062 0.0205 0.00524172 0.0231045 0.02134 0.00763399 0.0226213 0.0215227 
0.00203904 0.0234083 0.0222197 0.00813977 0.0239553 0.0207499 0.0130813 0.0220957 0.0212499 
0.0101388 0.024021 0.0206088 0.0143938 0.0276732 0.0205 0.0137114 0.0267977 0.020509 
0.0112513 0.0250789 0.0208089 0.0157161 0.0245452 0.0205373 0.0123194 0.0274254 0.0222009 
0.0158661 0.0263069 0.0212509 0.0232341 0.0249553 0.0207918 0.0185825 0.0255952 0.0208488 
0.0167554 0.0231259 0.02075 0.0233949 0.0220391 0.021693 0.0234868 0.0218826 0.0205162 
0.0172635 0.0253402 0.0205006 0.0164198 0.0251342 0.0224738 0.0194261 0.0220553 0.0210194 
0.0165118 0.0233936 0.0219591 0.0202782 0.0258222 0.0214356 0.021873 0.0238632 0.020693 
0.0227687 0.0253105 0.0220677 0.0185516 0.0280354 0.021722 0.0197623 0.027852 0.0223246 
0.00596087 0.0287618 0.0220046 0.00207571 0.0290109 0.0218643 0.00203917 0.0336129 0.0220181 
0.000536524 0.0300348 0.0205 0.00567961 0.0312856 0.0207506 0.000917061 0.031221 0.0207639 
0.00465247 0.0323709 0.0209729 0.00707433 0.0305825 0.020501 0.00561066 0.0348535 0.0221945 
0.00710646 0.0347683 0.0205065 0.00915447 0.0287243 0.021357 0.00989849 0.0334388 0.0208658 
0.0116072 0.0295354 0.021041 0.00859726 0.0349937 0.02075 0.0144994 0.0314931 0.0205 
0.00830043 0.0332949 0.0210727 0.00894119 0.0342891 0.0224775 0.0227259 0.033264 0.0222152 
0.0164134 0.0308694 0.0205 0.0185328 0.0340376 0.02075 0.0198294 0.0284124 0.02075 
0.017705 0.0330441 0.0220829 0.00517305 0.0369949 0.0207508 0.00673024 0.0372221 0.0205 
0.00449224 0.0376235 0.0216078 0.00448133 0.0400637 0.0210293 0.00227275 0.0361889 0.0205 
0.00130811 0.0374569 0.0205 0.0026278 0.0366783 0.0216615 0.000511489 0.0386623 0.0207014 
0.000778107 0.0406124 0.0207727 0.00414321 0.0385583 0.0218276 0.00606329 0.0386399 0.0214986 
0.00220975 0.041838 0.0224443 0.0043464 0.0418165 0.020748 0.00813328 0.0379672 0.02075 
0.00839442 0.0364889 0.020857 0.011274 0.0382252 0.0205 0.0106405 0.0362982 0.0205 
0.0154023 0.0386966 0.0205 0.0133597 0.0385545 0.0205 0.0143102 0.0381819 0.0207372 
0.011518 0.0418586 0.0219998 0.0106165 0.0373527 0.0216785 0.0117894 0.036037 0.0216505 
0.00918757 0.037244 0.0222106 0.00983379 0.0394265 0.0220604 0.0173521 0.0404726 0.0205186 
0.0164767 0.0388831 0.0205 0.0177348 0.0392258 0.0205 0.0234998 0.0401624 0.0205034 
0.0224838 0.0416645 0.02158 0.0234618 0.0393008 0.0210709 0.0171051 0.0421822 0.0217164 
0.0198419 0.0410874 0.0210741 0.00270498 0.0439671 0.0211665 0.00407177 0.042992 0.0205016 
0.00605696 0.0429165 0.0217552 0.00125459 0.0453601 0.0209999 0.00290387 0.0450291 0.0205308 
0.0027836 0.0462539 0.02075 0.000519015 0.0485392 0.0206465 0.00597691 0.045352 0.0207496 
0.0055463 0.0482737 0.0213489 0.000798623 0.0495512 0.0205047 0.00876061 0.0480641 0.02075 
0.00944682 0.0457666 0.0205 0.00963197 0.0495334 0.0205169 0.0109834 0.0454169 0.0205 
0.0113335 0.0486494 0.0217499 0.00977928 0.0469457 0.0207499 0.0143625 0.0450698 0.0222502 
0.0103073 0.0462709 0.0219617 0.0150499 0.0481946 0.0211271 0.0163443 0.0441904 0.020539 
0.0201753 0.0453395 0.02075 0.0209449 0.0474798 0.0214999 0.0179021 0.0469596 0.0212574 
0.0209445 0.0495536 0.0210842 0.022927 0.045236 0.0211096 0.0166769 0.0487453 0.0205 
0.0178787 0.0446741 0.0215341 0.000500462 0.0508366 0.020616 0.00143946 0.051023 0.0209113 
0.00100221 0.0525122 0.021 0.000647361 0.0544457 0.0208152 0.00052581 0.0554293 0.0205769 
0.00293466 0.0519967 0.0210002 0.00149276 0.0563758 0.0205149 0.00530853 0.0552556 0.0205 
0.00292872 0.0534494 0.020509 0.000498508 0.0564844 0.0205199 0.00757322 0.0498536 0.0215023 
0.00577184 0.0502222 0.0205014 0.000989625 0.0556854 0.0218261 0.00460669 0.0538124 0.0222134 
0.00746186 0.0539423 0.0213012 0.0155518 0.0507876 0.0207434 0.015815 0.0531229 0.0209113 
0.0130088 0.0558273 0.0204999 0.0103391 0.0561572 0.0222292 0.0234995 0.0499132 0.0205 
0.0162411 0.0517169 0.0219539 0.018992 0.049872 0.021501 0.0223446 0.0506629 0.021096 
0.0232294 0.0524502 0.0207519 0.0204664 0.0507902 0.0205032 0.0234992 0.0536445 0.0205 
0.0189285 0.0561212 0.0212731 0.0234999 0.0554668 0.0205 0.0230667 0.0545538 0.0205604 
0.0198775 0.0541177 0.0205596 0.0175413 0.0518766 0.0207627 0.0213039 0.0523989 0.0213591 
0.000987571 0.0568445 0.0213442 0.0025826 0.0571484 0.0213716 0.000789398 0.0585548 0.02075 
0.000571533 0.0600111 0.0205 0.00174825 0.0637058 0.0215019 0.00602806 0.0621979 0.0206894 
0.00386526 0.0587065 0.0210013 0.00756875 0.0635718 0.0215135 0.00591963 0.0610519 0.0218707 
0.00821754 0.0576097 0.0210457 0.00840389 0.0591482 0.0207589 0.0126909 0.0569574 0.021756 
0.0103873 0.0575337 0.0205 0.0101443 0.0613836 0.0209882 0.0160175 0.062174 0.0205122 
0.0120598 0.0586857 0.0209502 0.0136978 0.0579632 0.0209999 0.0108689 0.0596857 0.0205 
0.0156041 0.0573527 0.0222173 0.0155894 0.0601994 0.0217796 0.00942552 0.0603395 0.0206583 
0.0126195 0.0600316 0.0224973 0.008872 0.0617946 0.0221287 0.0146224 0.0637029 0.0217499 
0.00819912 0.0601954 0.022464 0.0225897 0.0568664 0.0215539 0.0171306 0.0568785 0.0207503 
0.0209558 0.0575916 0.0212499 0.0234779 0.0578162 0.0205 0.0227348 0.0593945 0.0212712 
0.0229986 0.0616202 0.0209999 0.0234986 0.0629442 0.0205 0.021079 0.06115 0.0205 
0.0170158 0.0583832 0.0207607 0.0203657 0.0634645 0.0205 0.0196903 0.0621022 0.0205 
0.0192153 0.0632724 0.0205 0.017026 0.0620132 0.020502 0.0192876 0.0608427 0.02075 
0.0168529 0.0636093 0.0212631 0.0190952 0.0596589 0.0218486 0.00501582 0.0648804 0.021076 
0.000543147 0.0650353 0.0205571 0.00201962 0.0689306 0.0205009 0.003811 0.0709429 0.0205 
0.000750871 0.0655813 0.0224161 0.00108588 0.0665666 0.0210009 0.00300575 0.0701494 0.0216405 
0.00105173 0.069965 0.0210005 0.00507584 0.0705219 0.0205 0.00741245 0.068519 0.0205 
[...]
POINT_DATA 867
FIELD FieldData 7
id 1 867 int
324 710 100 291 561 368 784 32 153 
241 815 588 763 448 228 300 490 199 
395 474 282 590 176 364 289 362 370 
783 51 233 217 501 636 89 171 598 
178 161 155 159 204 219 126 108 333 
142 200 340 452 518 185 61 66 31 
274 360 64 380 442 527 75 256 154 
98 722 121 427 401 13 390 275 581 
307 46 80 556 342 287 209 714 311 
190 319 57 143 192 6 113 293 735 
308 49 146 109 10 578 44 137 439 
174 35 737 713 646 820 323 850 592 
110 62 252 43 709 260 772 800 741 
591 465 71 189 78 231 330 41 697 
350 719 130 139 272 678 70 482 12 
162 529 508 700 1 118 611 152 780 
695 345 221 198 42 512 582 279 628 
400 726 566 523 557 238 536 717 862 
180 36 249 259 534 522 672 624 60 
348 269 505 54 91 261 831 844 374 
353 640 698 609 451 433 386 423 535 
366 680 519 579 762 668 145 855 347 
247 405 138 328 309 514 453 641 626 
615 814 242 268 394 326 650 304 305 
739 551 3 402 122 354 265 525 712 
608 567 496 40 88 335 367 533 403 
371 467 410 485 168 499 702 804 133 
769 357 331 378 244 165 94 264 379 
421 105 705 230 381 446 24 8 653 
711 750 415 431 573 73 112 470 445 
48 186 222 258 785 661 7 694 226 
332 263 140 619 103 667 254 373 692 
147 344 129 81 414 493 502 455 703 
396 696 26 540 67 306 45 179 84 
157 104 271 313 18 255 355 469 38 
456 477 86 76 299 351 558 243 629 
167 187 736 745 325 102 779 478 191 
225 39 239 117 679 20 210 149 69 
443 101 565 560 22 184 720 744 29 
644 422 473 182 302 82 288 87 125 
79 195 435 498 173 277 206 563 605 
664 407 398 235 408 404 376 14 257 
134 418 358 52 141 163 9 329 93 
481 234 655 85 253 312 606 458 656 
684 596 388 466 151 28 599 320 509 
156 798 816 392 858 730 148 213 25 
220 170 34 507 524 16 15 676 515 
572 663 549 845 97 864 577 123 544 
613 273 459 164 160 17 92 202 136 
322 2 281 5 604 290 106 211 724 
47 115 365 372 334 77 693 652 631 
486 447 569 208 237 488 625 175 756 
463 842 723 701 318 571 188 677 686 
691 30 764 774 369 810 542 33 419 
432 538 172 659 725 90 585 794 826 
853 436 399 296 503 587 576 673 59 
450 657 715 734 786 789 833 212 120 
758 801 812 837 839 550 583 688 600 
548 19 223 245 286 742 782 824 406 
731 472 836 685 476 662 718 823 627 
838 494 617 343 492 500 623 639 747 
759 770 648 813 841 787 594 337 315 
748 338 483 430 479 412 638 633 832 
521 554 285 597 752 647 504 861 675 
425 553 144 416 384 236 740 382 543 
99 316 375 462 506 545 603 669 196 
409 765 607 749 809 570 733 584 754 
457 802 835 775 471 426 602 670 847 
848 856 55 620 822 278 487 704 537 
547 397 37 428 682 766 788 807 811 
828 852 495 441 489 424 621 674 729 
349 776 799 792 773 124 687 526 517 
74 738 531 777 797 520 859 444 95 
361 276 665 614 251 510 637 193 681 
475 771 781 194 437 767 840 528 580 
11 768 201 454 346 574 658 791 821 
654 341 227 327 303 649 671 689 690 
728 753 562 803 808 829 846 857 863 
634 218 601 383 116 314 270 532 708 
727 356 806 854 267 760 491 530 642 
706 595 181 618 438 413 632 643 721 
352 778 593 716 834 860 484 301 564 
150 707 586 610 411 480 250 461 793 
851 417 96 205 216 232 53 183 555 
651 660 295 795 796 843 849 819 612 
817 511 589 790 818 830 683 158 616 
575 321 63 131 541 317 377 645 743 
440 127 513 761 215 107 56 363 732 
757 132 4 197 229 284 203 50 283 
468 539 559 568 128 393 434 666 119 
630 114 464 497 359 72 387 552 546 
214 635 68 65 262 622 420 292 248 
23 298 516 207 699 805 825 827 83 
755 746 266 135 385 169 246 336 339 
224 280 429 449 297 111 58 177 294 
310 240 389 21 27 166 391 460 751 
865 866 867 
type 1 867 int
1 1 1 1 1 1 1 1 1 
1 1 1 1 1 1 1 1 1 
1 1 1 1 1 1 1 1 1 
1 1 1 1 1 1 1 1 1 
1 1 1 1 1 1 1 1 1 
1 1 1 1 1 1 1 1 1 
1 1 1 1 1 1 1 1 1 
1 1 1 1 1 1 1 1 1 
1 1 1 1 1 1 1 1 1 
1 1 1 1 1 1 1 1 1 
1 1 1 1 1 1 1 1 1 
1 1 1 1 1 1 1 1 1 
1 1 1 1 1 1 1 1 1 
1 1 1 1 1 1 1 1 1 
1 1 1 1 1 1 1 1 1 
1 1 1 1 1 1 1 1 1 
1 1 1 1 1 1 1 1 1 
1 1 1 1 1 1 1 1 1 
1 1 1 1 1 1 1 1 1 
1 1 1 1 1 1 1 1 1 
1 1 1 1 1 1 1 1 1 
1 1 1 1 1 1 1 1 1 
1 1 1 1 1 1 1 1 1 
1 1 1 1 1 1 1 1 1 
1 1 1 1 1 1 1 1 1 
1 1 1 1 1 1 1 1 1 
1 1 1 1 1 1 1 1 1 
1 1 1 1 1 1 1 1 1 
1 1 1 1 1 1 1 1 1 
1 1 1 1 1 1 1 1 1 
1 1 1 1 1 1 1 1 1 
1 1 1 1 1 1 1 1 1 
1 1 1 1 1 1 1 1 1 
1 1 1 1 1 1 1 1 1 
1 1 1 1 1 1 1 1 1 
1 1 1 1 1 1 1 1 1 
1 1 1 1 1 1 1 1 1 
1 1 1 1 1 1 1 1 1 
1 1 1 1 1 1 1 1 1 
1 1 1 1 1 1 1 1 1 
1 1 1 1 1 1 1 1 1 
1 1 1 1 1 1 1 1 1 
1 1 1 1 1 1 1 1 1 
1 1 1 1 1 1 1 1 1 
1 1 1 1 1 1 1 1 1 
1 1 1 1 1 1 1 1 1 
1 1 1 1 1 1 1 1 1 
1 1 1 1 1 1 1 1 1 
1 1 1 1 1 1 1 1 1 
1 1 1 1 1 1 1 1 1 
1 1 1 1 1 1 1 1 1 
1 1 1 1 1 1 1 1 1 
1 1 1 1 1 1 1 1 1 
1 1 1 1 1 1 1 1 1 
1 1 1 1 1 1 1 1 1 
1 1 1 1 1 1 1 1 1 
1 1 1 1 1 1 1 1 1 
1 1 1 1 1 1 1 1 1 
1 1 1 1 1 1 1 1 1 
1 1 1 1 1 1 1 1 1 
1 1 1 1 1 1 1 1 1 
1 1 1 1 1 1 1 1 1 
1 1 1 1 1 1 1 1 1 
1 1 1 1 1 1 1 1 1 
1 1 1 1 1 1 1 1 1 
1 1 1 1 1 1 1 1 1 
1 1 1 1 1 1 1 1 1 
1 1 1 1 1 1 1 1 1 
1 1 1 1 1 1 1 1 1 
1 1 1 1 1 1 1 1 1 
1 1 1 1 1 1 1 1 1 
1 1 1 1 1 1 1 1 1 
1 1 1 1 1 1 1 1 1 
1 1 1 1 1 1 1 1 1 
1 1 1 1 1 1 1 1 1 
1 1 1 1 1 1 1 1 1 
1 1 1 1 1 1 1 1 1 
1 1 1 1 1 1 1 1 1 
1 1 1 1 1 1 1 1 1 
1 1 1 1 1 1 1 1 1 
1 1 1 1 1 1 1 1 1 
1 1 1 1 1 1 1 1 1 
1 1 1 1 1 1 1 1 1 
1 1 1 1 1 1 1 1 1 
1 1 1 1 1 1 1 1 1 
1 1 1 1 1 1 1 1 1 
1 1 1 1 1 1 1 1 1 
1 1 1 1 1 1 1 1 1 
1 1 1 1 1 1 1 1 1 
1 1 1 1 1 1 1 1 1 
1 1 1 1 1 1 1 1 1 
1 1 1 1 1 1 1 1 1 
1 1 1 1 1 1 1 1 1 
1 1 1 1 1 1 1 1 1 
1 1 1 1 1 1 1 1 1 
1 1 1 1 1 1 1 1 1 
1 1 1 
i 3 867 int
0 0 0 0 0 0 0 0 0 
0 0 0 0 0 0 0 0 0 
0 0 0 0 0 0 0 0 0 
0 0 0 0 0 0 0 0 0 
0 0 0 0 0 0 0 0 0 
0 0 0 0 0 0 0 0 0 
0 0 0 0 0 0 0 0 0 
0 0 0 0 0 0 0 0 0 
0 0 0 0 0 0 0 0 0 
0 0 0 0 0 0 0 0 0 
0 0 0 0 0 0 0 0 0 
0 0 0 0 0 0 0 0 0 
0 0 0 0 0 0 0 0 0 
0 0 0 0 0 0 0 0 0 
0 0 0 0 0 0 0 0 0 
0 0 0 0 0 0 0 0 0 
0 0 0 0 0 0 0 0 0 
0 0 0 0 0 0 0 0 0 
0 0 0 0 0 0 0 0 0 
0 0 0 0 0 0 0 0 0 
0 0 0 0 0 0 0 0 0 
0 0 0 0 0 0 0 0 0 
0 0 0 0 0 0 0 0 0 
0 0 0 0 0 0 0 0 0 
0 0 0 0 0 0 0 0 0 
0 0 0 0 0 0 0 0 0 
0 0 0 0 0 0 0 0 0 
0 0 0 0 0 0 0 0 0 
0 0 0 0 0 0 0 0 0 
0 0 0 0 0 0 0 0 0 
0 0 0 0 0 0 0 0 0 
0 0 0 0 0 0 0 0 0 
0 0 0 0 0 0 0 0 0 
0 0 0 0 0 0 0 0 0 
0 0 0 0 0 0 0 0 0 
0 0 0 0 0 0 0 0 0 
0 0 0 0 0 0 0 0 0 
0 0 0 0 0 0 0 0 0 
0 0 0 0 0 0 0 0 0 
0 0 0 0 0 0 0 0 0 
0 0 0 0 0 0 0 0 0 
0 0 0 0 0 0 0 0 0 
0 0 0 0 0 0 0 0 0 
0 0 0 0 0 0 0 0 0 
0 0 0 0 0 0 0 0 0 
0 0 0 0 0 0 0 0 0 
0 0 0 0 0 0 0 0 0 
0 0 0 0 0 0 0 0 0 
0 0 0 0 0 0 0 0 0 
0 0 0 0 0 0 0 0 0 
0 0 0 0 0 0 0 0 0 
0 0 0 0 0 0 0 0 0 
0 0 0 0 0 0 0 0 0 
0 0 0 0 0 0 0 0 0 
0 0 0 0 0 0 0 0 0 
0 0 0 0 0 0 0 0 0 
0 0 0 0 0 0 0 0 0 
0 0 0 0 0 0 0 0 0 
0 0 0 0 0 0 0 0 0 
0 0 0 0 0 0 0 0 0 
0 0 0 0 0 0 0 0 0 
0 0 0 0 0 0 0 0 0 
0 0 0 0 0 0 0 0 0 
0 0 0 0 0 0 0 0 0 
0 0 0 0 0 0 0 0 0 
0 0 0 0 0 0 0 0 0 
0 0 0 0 0 0 0 0 0 
0 0 0 0 0 0 0 0 0 
0 0 0 0 0 0 0 0 0 
0 0 0 0 0 0 0 0 0 
0 0 0 0 0 0 0 0 0 
0 0 0 0 0 0 0 0 0 
0 0 0 0 0 0 0 0 0 
0 0 0 0 0 0 0 0 0 
0 0 0 0 0 0 0 0 0 
0 0 0 0 0 0 0 0 0 
0 0 0 0 0 0 0 0 0 
0 0 0 0 0 0 0 0 0 
0 0 0 0 0 0 0 0 0 
0 0 0 0 0 0 0 0 0 
0 0 0 0 0 0 0 0 0 
0 0 0 0 0 0 0 0 0 
0 0 0 0 0 0 0 0 0 
0 0 0 0 0 0 0 0 0 
0 0 0 0 0 0 0 0 0 
0 0 0 0 0 0 0 0 0 
0 0 0 0 0 0 0 0 0 
0 0 0 0 0 0 0 0 0 
0 0 0 0 0 0 0 0 0 
0 0 0 0 0 0 0 0 0 
0 0 0 0 0 0 0 0 0 
0 0 0 0 0 0 0 0 0 
0 0 0 0 0 0 0 0 0 
0 0 0 0 0 0 0 0 0 
0 0 0 0 0 0 0 0 0 
0 0 0 0 0 0 0 0 0 
0 0 0 0 0 0 0 0 0 
0 0 0 0 0 0 0 0 0 
0 0 0 0 0 0 0 0 0 
0 0 0 0 0 0 0 0 0 
0 0 0 0 0 0 0 0 0 
0 0 0 0 0 0 0 0 0 
0 0 0 0 0 0 0 0 0 
0 0 0 0 0 0 0 0 0 
0 0 0 0 0 0 0 0 0 
0 0 0 0 0 0 0 0 0 
0 0 0 0 0 0 0 0 0 
0 0 0 0 0 0 0 0 0 
0 0 0 0 0 0 0 0 0 
0 0 0 0 0 0 0 0 0 
0 0 0 0 0 0 0 0 0 
0 0 0 0 0 0 0 0 0 
0 0 0 0 0 0 0 0 0 
0 0 0 0 0 0 0 0 0 
0 0 0 0 0 0 0 0 0 
0 0 0 0 0 0 0 0 0 
0 0 0 0 0 0 0 0 0 
0 0 0 0 0 0 0 0 0 
0 0 0 0 0 0 0 0 0 
0 0 0 0 0 0 0 0 0 
0 0 0 0 0 0 0 0 0 
0 0 0 0 0 0 0 0 0 
0 0 0 0 0 0 0 0 0 
0 0 0 0 0 0 0 0 0 
0 0 0 0 0 0 0 0 0 
0 0 0 0 0 0 0 0 0 
0 0 0 0 0 0 0 0 0 
0 0 0 0 0 0 0 0 0 
0 0 0 0 0 0 0 0 0 
0 0 0 0 0 0 0 0 0 
0 0 0 0 0 0 0 0 0 
0 0 0 0 0 0 0 0 0 
0 0 0 0 0 0 0 0 0 
0 0 0 0 0 0 0 0 0 
0 0 0 0 0 0 0 0 0 
0 0 0 0 0 0 0 0 0 
0 0 0 0 0 0 0 0 0 
0 0 0 0 0 0 0 0 0 
0 0 0 0 0 0 0 0 0 
0 0 0 0 0 0 0 0 0 
0 0 0 0 0 0 0 0 0 
0 0 0 0 0 0 0 0 0 
0 0 0 0 0 0 0 0 0 
0 0 0 0 0 0 0 0 0 
0 0 0 0 0 0 0 0 0 
0 0 0 0 0 0 0 0 0 
0 0 0 0 0 0 0 0 0 
0 0 0 0 0 0 0 0 0 
0 0 0 0 0 0 0 0 0 
0 0 0 0 0 0 0 0 0 
0 0 0 0 0 0 0 0 0 
0 0 0 0 0 0 0 0 0 
0 0 0 0 0 0 0 0 0 
0 0 0 0 0 0 0 0 0 
0 0 0 0 0 0 0 0 0 
0 0 0 0 0 0 0 0 0 
0 0 0 0 0 0 0 0 0 
0 0 0 0 0 0 0 0 0 
0 0 0 0 0 0 0 0 0 
0 0 0 0 0 0 0 0 0 
0 0 0 0 0 0 0 0 0 
0 0 0 0 0 0 0 0 0 
0 0 0 0 0 0 0 0 0 
0 0 0 0 0 0 0 0 0 
0 0 0 0 0 0 0 0 0 
0 0 0 0 0 0 0 0 0 
0 0 0 0 0 0 0 0 0 
0 0 0 0 0 0 0 0 0 
0 0 0 0 0 0 0 0 0 
0 0 0 0 0 0 0 0 0 
0 0 0 0 0 0 0 0 0 
0 0 0 0 0 0 0 0 0 
0 0 0 0 0 0 0 0 0 
0 0 0 0 0 0 0 0 0 
0 0 0 0 0 0 0 0 0 
0 0 0 0 0 0 0 0 0 
0 0 0 0 0 0 0 0 0 
0 0 0 0 0 0 0 0 0 
0 0 0 0 0 0 0 0 0 
0 0 0 0 0 0 0 0 0 
0 0 0 0 0 0 0 0 0 
0 0 0 0 0 0 0 0 0 
0 0 0 0 0 0 0 0 0 
0 0 0 0 0 0 0 0 0 
0 0 0 0 0 0 0 0 0 
0 0 0 0 0 0 0 0 0 
0 0 0 0 0 0 0 0 0 
0 0 0 0 0 0 0 0 0 
0 0 0 0 0 0 0 0 0 
0 0 0 0 0 0 0 0 0 
0 0 0 0 0 0 0 0 0 
0 0 0 0 0 0 0 0 0 
0 0 0 0 0 0 0 0 0 
0 0 0 0 0 0 0 0 0 
0 0 0 0 0 0 0 0 0 
0 0 0 0 0 0 0 0 0 
0 0 0 0 0 0 0 0 0 
0 0 0 0 0 0 0 0 0 
0 0 0 0 0 0 0 0 0 
0 0 0 0 0 0 0 0 0 
0 0 0 0 0 0 0 0 0 
0 0 0 0 0 0 0 0 0 
0 0 0 0 0 0 0 0 0 
0 0 0 0 0 0 0 0 0 
0 0 0 0 0 0 0 0 0 
0 0 0 0 0 0 0 0 0 
0 0 0 0 0 0 0 0 0 
0 0 0 0 0 0 0 0 0 
0 0 0 0 0 0 0 0 0 
0 0 0 0 0 0 0 0 0 
0 0 0 0 0 0 0 0 0 
0 0 0 0 0 0 0 0 0 
0 0 0 0 0 0 0 0 0 
0 0 0 0 0 0 0 0 0 
0 0 0 0 0 0 0 0 0 
0 0 0 0 0 0 0 0 0 
0 0 0 0 0 0 0 0 0 
0 0 0 0 0 0 0 0 0 
0 0 0 0 0 0 0 0 0 
0 0 0 0 0 0 0 0 0 
0 0 0 0 0 0 0 0 0 
0 0 0 0 0 0 0 0 0 
0 0 0 0 0 0 0 0 0 
0 0 0 0 0 0 0 0 0 
0 0 0 0 0 0 0 0 0 
0 0 0 0 0 0 0 0 0 
0 0 0 0 0 0 0 0 0 
0 0 0 0 0 0 0 0 0 
0 0 0 0 0 0 0 0 0 
0 0 0 0 0 0 0 0 0 
0 0 0 0 0 0 0 0 0 
0 0 0 0 0 0 0 0 0 
0 0 0 0 0 0 0 0 0 
0 0 0 0 0 0 0 0 0 
0 0 0 0 0 0 0 0 0 
0 0 0 0 0 0 0 0 0 
0 0 0 0 0 0 0 0 0 
0 0 0 0 0 0 0 0 0 
0 0 0 0 0 0 0 0 0 
0 0 0 0 0 0 0 0 0 
0 0 0 0 0 0 0 0 0 
0 0 0 0 0 0 0 0 0 
0 0 0 0 0 0 0 0 0 
0 0 0 0 0 0 0 0 0 
0 0 0 0 0 0 0 0 0 
0 0 0 0 0 0 0 0 0 
0 0 0 0 0 0 0 0 0 
0 0 0 0 0 0 0 0 0 
0 0 0 0 0 0 0 0 0 
0 0 0 0 0 0 0 0 0 
0 0 0 0 0 0 0 0 0 
0 0 0 0 0 0 0 0 0 
0 0 0 0 0 0 0 0 0 
0 0 0 0 0 0 0 0 0 
0 0 0 0 0 0 0 0 0 
0 0 0 0 0 0 0 0 0 
0 0 0 0 0 0 0 0 0 
0 0 0 0 0 0 0 0 0 
0 0 0 0 0 0 0 0 0 
0 0 0 0 0 0 0 0 0 
0 0 0 0 0 0 0 0 0 
0 0 0 0 0 0 0 0 0 
0 0 0 0 0 0 0 0 0 
0 0 0 0 0 0 0 0 0 
0 0 0 0 0 0 0 0 0 
0 0 0 0 0 0 0 0 0 
0 0 0 0 0 0 0 0 0 
0 0 0 0 0 0 0 0 0 
0 0 0 0 0 0 0 0 0 
0 0 0 0 0 0 0 0 0 
0 0 0 0 0 0 0 0 0 
0 0 0 0 0 0 0 0 0 
0 0 0 0 0 0 0 0 0 
0 0 0 0 0 0 0 0 0 
0 0 0 0 0 0 0 0 0 
0 0 0 0 0 0 0 0 0 
0 0 0 0 0 0 0 0 0 
0 0 0 0 0 0 0 0 0 
0 0 0 0 0 0 0 0 0 
0 0 0 0 0 0 0 0 0 
0 0 0 0 0 0 0 0 0 
0 0 0 0 0 0 0 0 0 
0 0 0 0 0 0 0 0 0 
0 0 0 0 0 0 0 0 0 
0 0 0 0 0 0 0 0 0 
0 0 0 0 0 0 0 0 0 
0 0 0 0 0 0 0 0 0 
0 0 0 0 0 0 0 0 0 
0 0 0 0 0 0 0 0 0 

v 3 867 double
0.0329736 0.331786 0.0160031 3.26097 -7.48411 -0.0793552 -1.1544 0.606415 1.96525 
-0.515529 0.221427 -0.118416 0 0 -1.51268 0.257169 -6.90792 7.46091e-13 
0.741815 0.206798 -1.04839 -0.261786 -3.93346 0.180946 1.13362 -7.15832 1.60946 
1.28677 0.070831 -3.43485 -0.597425 -0.492465 -0.646037 -0.804846 -0.107977 -0.438931 
1.18213 -1.46877 2.40509 -1.40997 -1.52885 3.33806e-11 -0.111402 -3.26826 -0.46589 
-1.72958 0.141791 -1.09331 2.5729 -2.96713 1.6909 4.50029 1.75543 0.151575 
1.7595 1.37088 -1.79552e-11 4.05849 -0.917971 0.0319677 -0.80979 -2.3747 -1.06923 
1.72145 0.843222 0.089474 4.72168 0.145329 1.52419 6.41809 0.370135 1.92193 
-1.08537 -2.27868 -2.8038e-11 -1.08568 -2.64469 -2.15482 0.889989 -0.373482 0.27245 
0 0 -0.513038 -0.607093 -1.76984 9.37771e-05 -2.43513 -5.11005 -0.907645 
4.08486 -3.02762 0.0617397 -1.59392 -8.97475 2.86439 -1.82281 -2.18393 6.05806e-10 
3.12137 -7.12714 1.63419 -1.77168 -1.65019 0.0240947 -1.89334 -1.63498 -2.28682 
-1.93437 0.0659644 8.35386e-12 -5.49949e-05 0.164027 -1.61403e-06 -2.43551 -1.68713 0.697515 
1.41621 -1.72961 0.0993916 1.92004 -0.620049 -0.113745 0.105779 -0.283588 4.24818e-06 
-1.51485 -1.3145 0.0294648 -3.16282 -1.16542 0.086393 1.21355 1.54693 1.30924 
0.253265 0.0973158 6.67747e-08 1.44529 -1.30093 0.0445803 -0.0187572 1.06763 0.0216728 
-0.0945248 1.1581 0.0896838 -1.71078 -2.25499 -0.825181 0.32488 -3.15675 0.0791558 
-2.64672 -3.18414 -1.50709 -1.77694 -3.80948 -1.34528 -0.706711 0.154678 -0.644824 
-0.1998 -1.35247 -1.24555e-11 0.428725 -0.515774 2.60423e-11 -4.16325 -1.94785 2.7976 
-0.635146 -1.06488 -3.07878e-11 -3.09082 -3.29156 0.547476 -3.51289 -2.41166 0.0180848 
-0.734881 -1.23845 2.53526e-11 -1.25596 -1.13204 -0.239032 0.507337 -0.131252 0.96943 
0.144595 -1.61909 0.0609285 -3.39972 -2.25027 0.50491 -0.0898236 -2.31383 -1.24147e-06 
-0.389453 -1.37347 -3.59785 1.6884 0.235222 0.373204 -0.494138 -1.61353 0.0683197 
-2.51429 1.09257 -1.53278 10.9522 -2.81258 -0.363152 7.12262 -3.24083 -0.465731 
-0.073464 -2.42162 0.000182424 -1.62123 -0.82179 7.11259e-09 0.236352 -0.944074 -0.177001 
3.47867 0.854845 0.171984 3.87922 0.0735 1.38977 1.8713 -0.247858 0.0486934 
-1.27337 -1.9385 2.6957e-11 0.541963 0.116423 -6.18634 -0.877583 -2.33685 0.200669 
-1.37604 -0.042725 1.43159e-06 -0.0166578 -1.89834 -0.000937112 -0.675149 0.171884 0.726951 
-0.464638 -0.0593743 0.17275 1.09733 -1.81217 -2.79234e-05 -1.04815 -0.949594 1.23933 
2.12947 -4.3544 2.97088e-11 0.909488 -1.21533 -0.0115519 -1.34325 -1.02713 1.17223 
-1.52111 -1.32892 0.0165765 -2.36618 -3.73837 -0.0506911 -0.0226108 -2.68526 -1.42581 
1.51345 -2.23361 -1.20026 1.83323 -1.99275 0.0421242 0.409627 -1.52276 0.243016 
1.18722 -0.960261 3.77644e-06 -0.440962 -1.51958 -0.53328 0.530734 -0.32224 -0.0491861 
-0.156728 0.636484 -0.0623936 -0.00331894 -2.34304 0.0451976 0 0 -0.715615 
-1.20615 0.774381 -3.22637 -0.780732 -0.74251 -2.24165 0.0178533 -1.27344 -0.305679 
0.0931749 -0.54062 -1.5243 0 0 -0.127015 2.3475 1.13415 0.203755 
3.56495 0.311265 -1.81286e-05 0.693245 0.0133633 -1.0813e-05 -0.0716491 -2.31491 -0.194816 
-0.357305 -1.10414 0.0191528 0 0 -2.56437e-11 1.13276 -2.40471 -0.00166969 
1.39286 2.29816 -1.93675 1.2869 -2.82152 0.473259 0 0 -0.710219 
2.20708 -1.19922 -0.227747 4.71995 -0.0435614 2.19655e-08 4.67869 -1.42803 2.05426e-11 
-3.11842 -4.40786 0.419916 0.635165 -3.13902 0.0233746 -0.129271 -1.55541 9.54322e-12 
-0.717684 -3.28705 0.0353226 -0.67565 -1.4606 4.97758e-08 0 0 -0.906174 
-2.36433 -2.30814 -0.776729 0 0 -0.781342 -0.268306 -1.52557 1.22931e-11 
-1.68792 -1.44044 -0.991456 -0.316143 -4.29246 2.83122e-09 -4.10418 3.43805 -0.901006 
0.451458 -0.964623 -3.07878e-11 -1.1574 0.174647 6.92238e-08 0.180875 -2.05322 -0.194664 
0.0489106 -0.367874 1.68761e-11 -0.34739 0.140067 0.152279 -0.638285 -0.845583 -2.48404 
-2.63505 2.798 0.974172 -0.723332 0.808719 -0.00780792 1.55084 -0.943361 -9.97076e-08 
-10.4059 -9.31029 0.630201 -0.189368 -0.510428 2.42091e-11 -0.38408 -0.833516 0.0357428 
-8.98297 -9.7601 -4.7431 -1.24539 -7.2819 0.107463 -7.83598 -7.86188 -0.772531 
-2.05335 -5.94354 -0.0108754 -0.295074 -4.46924 0.70766 1.62699 0.0256978 0.240395 
0.0189274 -0.020797 -3.92137e-09 3.25664 -8.49191 -6.71234 5.49814 -1.9496 0.0608631 
-0.812906 -4.30918 -0.0128734 0.332381 -5.43125 -0.246562 1.29552 -0.193534 0.243662 
-0.168832 0.185509 -0.144578 2.89472 2.67306 -1.68695 -0.573316 -1.56878 -3.93562 
-1.19418 -9.97493 6.01316 -5.39988 -7.7992 -4.71453 0 0 -0.049516 
-4.37408 -1.04201 0.247387 0.5034 -0.642915 -0.349133 0.280171 -0.592547 0.0640028 
0.130465 -0.518798 0.000126243 -3.47407 1.27467 -0.0225 0.497024 -0.537561 -0.0977658 
-2.97593 1.88439 0.430093 0.716698 -2.75233 0.424299 -2.59134 2.65892 -2.41312 
3.96088 -1.11622 1.42841 -6.92309 -5.83103 0.233704 -0.276361 -1.16856 -0.56776 
-5.25792 -6.57362 -0.797804 -10.6924 0.405239 0.00345383 -2.01545 -1.94347 1.04598e-11 
-2.49559 -1.37823 0.250075 0 0 -0.153502 -0.686288 -0.918749 1.34688 
-0.872153 -3.20793 -1.33721e-11 -1.03545 0.241833 4.43107e-12 0 0 2.53526e-11 
-0.890353 -0.404335 -3.91624 -2.88554 5.15031 0.0468358 -2.63017 2.81057 2.03853e-11 
-3.91188 2.70601 1.43497 -1.10306 0.615586 0.0171998 -0.269926 0.117217 -5.12261e-12 
-3.10186 -0.719643 -4.77261e-09 -0.0779946 0.925821 -0.359618 0.0446731 0.633069 0.143151 
0.143328 -1.07203 0.0194865 -2.50662 4.12247 0.505659 -1.37926 6.68707 -2.46939 
1.10863 3.38696 0.0107237 3.78889 -8.15742 -6.86974 -0.0588514 3.34955 -0.00195521 
-2.22591 2.69297 0.67865 0.50578 6.32181 -6.09273e-05 0 0 -2.71214e-11 
0.629631 0.802386 1.13765e-11 -0.670822 0.0976023 -2.16217e-11 0.0538308 0.487619 -0.971859 
-0.196075 1.8524 -1.43049e-05 -0.875089 -0.744805 -2.41281 1.00989 2.05073 -3.03405 
-1.77605 -1.05078 -3.56027 -11.7418 6.62097 -9.29756 -5.96122 -2.77458 0.217262 
0 0 -3.07878e-11 0 0 1.59595e-11 0.0449773 -0.952901 0.0194445 
-0.0544222 -1.0713 -0.199153 -0.109934 -3.3003 -2.0951 -1.91676 2.8425 -2.83482 
-0.0632204 9.30347 1.57362 -0.596046 10.5889 5.18792 -0.778871 3.54506 0.0474625 
-2.55704 0.563881 0.33443 0.369074 6.0781 7.37286e-09 0.983141 6.77213 -1.46275 
-0.155913 6.48137 -0.00161791 0.0243333 -2.72273 -2.1608 0 0 0.171699 
1.66628 -3.06643 1.53418 -2.43109 -0.554128 0.0838371 1.02194 1.01657 -6.402e-08 
0.0824838 0.315669 -0.00147362 -0.300547 2.48728 0.10849 0 0 -4.206e-12 
-0.445814 1.14708 -0.000342095 0.385443 0.254799 0.00899416 0.720884 1.23582 0.0109633 
0.330101 -0.0211171 -0.123395 0.127792 0.838875 -2.08779 1.24235 6.1052 -3.30477 
1.64086 0.420416 1.75851e-12 1.07117 0.952581 2.06639e-11 0.330316 1.13799 -0.113328 
0.825857 1.23447 -1.00977 0 0 -0.406355 1.1681 -2.44739 -2.52881e-11 
7.16171 -0.303351 -11.7699 0.0293106 0.580157 -0.288304 -0.54233 2.73938 0.706484 
0.134528 2.66722 -0.00318624 0.389198 3.02384 -0.393903 0.127484 3.32932 0.251917 
-0.0448344 1.95235 0.0548486 -1.48722 4.98784 0.0252457 -0.20412 3.25855 0.000705486 
-3.11206 2.74476 0.0793168 0.279181 3.59031 0.0166322 0.164856 0.279229 -0.194918 
-0.0293845 0.811468 -0.19188 1.06318 4.33388 0.355867 -1.69016 3.79183 -0.229117 
-1.46097 0.992028 -0.0375216 0.934667 6.07254 0.541024 0.26422 0.750195 -1.28409 
-0.178615 -2.34683 0.0145344 0.545475 -3.13356 -0.155263 -0.00785735 2.67232 -5.23856e-07 
2.47471 0.511612 1.07309 0.668366 0.860089 0.0106196 -0.103927 2.66798 -0.192792 
-0.0844727 4.22612 -0.0603082 0.237858 1.90453 0.0946435 -0.00330007 4.2205 2.48723e-07 
2.46731 -0.280508 0.0135435 -0.0298238 3.52858 -0.00205361 -0.916107 3.91373 0.041677 
-1.77198 3.07886 0.0159546 2.00996 0.304924 0.119932 -0.792969 2.32486 0.999627 
0.596386 4.11047 -0.430375 -0.350612 2.37426 1.34093 0.12329 6.37435 0.000310706 
-0.468795 1.12743 1.50429e-11 1.01385 4.74309 0.164055 2.92791 1.23848 -1.28001 
0.393655 0.926694 0.206402 2.09495 0.145807 0.210562 0.38434 3.10651 -5.49949 
0.673475 7.11675 0.753121 0.874165 1.8431 0.455724 -0.13643 -0.550386 0.237523 
-2.72147 -1.7453 -1.88718e-11 2.33588 0.297918 -0.0250382 3.18834 0.701943 0.284499 
-0.244458 -1.65083 0.0460666 0.408242 -0.769655 -3.6283e-12 1.6014 -1.62875 -2.8038e-11 
1.40812 -1.3224 1.1473 2.26395 -0.744946 0.0338945 3.1129 6.56637 -1.25153 
2.83921 -4.17652 0.906894 1.44807 4.18493 -1.96846 3.15682 -1.76798 -0.00331388 
1.19384 4.65806 -0.481961 2.10705 0.866763 -0.0511265 2.20562 -0.166416 -0.0299474 
1.51234 1.17855 4.29435e-06 -0.00704662 1.89638 1.04598e-11 -0.211532 3.70983 0.135383 
-0.0213777 3.78074 0.0029442 -0.0241556 3.80118 3.67893e-05 -0.436171 1.45801 2.87921e-11 
3.38343 0.0843314 -0.025893 0.199342 3.22697 2.78755e-11 -0.978738 2.62228 -2.7762e-11 
-0.228095 2.56985 2.51257e-11 3.78275 0.739545 0.0500676 -0.800223 2.49517 2.92754e-11 
4.27061 3.80944 -2.25581 -0.649629 0.184144 -1.97805 1.38942 4.73864 0.187911 
0.198658 2.12855 -0.0825816 0.416407 0.327646 0.0421212 1.88526 2.32314 1.68761e-11 
0.03589 1.71832 2.40926 0.312208 -1.25501 0.00384854 0 0 -1.21225 
-0.0117212 0.114541 0.00818487 2.00679 -0.360345 -3.35377e-11 0 0 1.50429e-11 
0 0 -3.6041e-11 0.0032751 1.73702 -6.03923e-12 -3.78174 5.00089 -0.00279987 