# vtk DataFile Version 4.0
Generated by LIGGGHTS
ASCII
DATASET POLYDATA
POINTS 2878 float
0.00382254 0.00188286 0.0217231 0.000506168 0.00150849 0.0205 0.00587489 0.00367101 0.02075 
0.00556994 0.000718337 0.0205 0.00523322 0.00260802 0.0205 0.00235568 0.000540527 0.0205451 
0.00466679 0.00387414 0.0205 0.000500395 0.000503886 0.0205 0.00144301 0.00258214 0.0209999 
0.00616007 0.00489552 0.0205 0.00459299 0.000500275 0.0205 0.00107001 0.00591172 0.021205 
0.00578118 0.00244784 0.0214264 0.00572877 0.00172476 0.020501 0.00277776 0.00600097 0.0205 
0.00584779 0.0013518 0.0214246 0.000502186 0.00375237 0.0211235 0.00682495 0.0023046 0.02075 
0.00667942 0.000796888 0.0214565 0.00708385 0.00683644 0.0210222 0.00654757 0.000500646 0.0205 
0.00568698 0.00699735 0.0204999 0.000649561 0.0022608 0.0222414 0.00770757 0.000893601 0.0207498 
0.00124418 0.000891066 0.0214342 0.00766069 0.000749822 0.0222419 0.00373629 0.00346489 0.0205011 
0.00175312 0.00675186 0.0218317 0.00804732 0.00221267 0.0205 0.00835854 0.00624345 0.0204998 
0.00837764 0.00424373 0.0219998 0.0089258 0.00168258 0.0215062 0.00934759 0.00638962 0.0204999 
0.00992314 0.00557182 0.0205 0.0103373 0.00464304 0.0204999 0.0118807 0.0034141 0.0204999 
0.0108623 0.00278633 0.0205 0.0140745 0.00197401 0.0207499 0.0106378 0.00136689 0.0204999 
0.00987743 0.000521011 0.0205 0.0137622 0.000500709 0.0205 0.0111708 0.000503339 0.0205 
0.00887629 0.000499997 0.0205 0.011211 0.00415665 0.0205 0.0134231 0.00327881 0.0205 
0.00976176 0.00222267 0.02075 0.0110926 0.00529831 0.0205 0.0107014 0.00501922 0.0213769 
0.0127774 0.00489601 0.0214997 0.0105074 0.000749953 0.021579 0.01395 0.00617054 0.0204997 
0.00877066 0.00150234 0.0205 0.0108418 0.00683823 0.0212924 0.0145312 0.00674228 0.0217585 
0.0103316 0.00363522 0.0205004 0.0145513 0.00503992 0.0205 0.0149294 0.00596616 0.0205 
0.0151738 0.00356815 0.0212499 0.00869326 0.000503655 0.0214831 0.0121417 0.00185478 0.0212499 
0.0149844 0.000750107 0.02075 0.0110158 0.00348286 0.0215362 0.0115882 0.000499931 0.0222097 
0.0129109 0.000499968 0.0220469 0.0126329 0.00704258 0.0221586 0.0232501 0.000749844 0.0207498 
0.0227853 0.00338279 0.0205 0.0235 0.0052589 0.0205 0.0215018 0.000999893 0.0209997 
0.02325 0.00427998 0.0212358 0.0232502 0.00224971 0.0207499 0.0203272 0.00264155 0.02075 
0.0215983 0.00442896 0.02075 0.0235002 0.00625882 0.0204996 0.0197351 0.000749991 0.02075 
0.0164908 0.00570569 0.0212499 0.0169689 0.00149994 0.0214999 0.022886 0.000999762 0.0224429 
0.0218507 0.00290381 0.0215715 0.0168318 0.00330845 0.0205 0.0187953 0.0042486 0.0209999 
0.0232501 0.00579206 0.0216314 0.0182174 0.00554377 0.0214883 0.0188315 0.00251611 0.02075 
0.0204272 0.00392099 0.0215402 0.0203173 0.00616784 0.0214999 0.0225412 0.00570444 0.0205 
0.0180651 0.00553334 0.0205 0.0221136 0.00528756 0.0214985 0.0181647 0.00678603 0.0217143 
0.0185631 0.00640761 0.0205 0.00107483 0.0072815 0.0205 0.00266866 0.00724743 0.02075 
0.00732718 0.00770449 0.022221 0.00799888 0.00791417 0.0205 0.0038058 0.00785158 0.0205 
0.00475348 0.0075247 0.0205 0.00640611 0.0121035 0.0205003 0.00516769 0.00868905 0.0207499 
0.000499997 0.00811464 0.0205 0.00610786 0.00790431 0.0205 0.000907712 0.00903866 0.0205 
0.00534503 0.0102961 0.02075 0.0061426 0.00813422 0.0217566 0.00590471 0.00942099 0.0214452 
0.00293799 0.00970308 0.0219998 0.000730629 0.0100275 0.0205 0.00789678 0.0127077 0.0204998 
0.00253114 0.0118616 0.0205 0.000501614 0.011011 0.0205 0.00400152 0.0116895 0.0205 
0.00522182 0.0117914 0.0207508 0.00111767 0.0122901 0.0209999 0.00632995 0.00920469 0.0205 
0.00568102 0.0129292 0.0205001 0.00154396 0.0139527 0.0205 0.00049996 0.0135625 0.0205 
0.00749919 0.0115496 0.0207499 0.00702467 0.0140262 0.0212499 0.00704897 0.00824192 0.0204998 
0.00540673 0.00944956 0.0223119 0.00051538 0.0134058 0.0219716 0.00504445 0.0112087 0.0218426 
0.00367279 0.0138827 0.0222497 0.00787628 0.00956826 0.021747 0.000505861 0.0141562 0.0213045 
0.00631435 0.0110447 0.0205 0.00582901 0.0103817 0.0219223 0.000749989 0.0114334 0.0224809 
0.0131456 0.00709464 0.0207499 0.00850444 0.00730723 0.0219292 0.0121095 0.00774711 0.0204997 
0.0145231 0.00836226 0.02075 0.00922728 0.00788745 0.0207499 0.0138371 0.00969706 0.02075 
0.0108311 0.0109262 0.0205 0.0132642 0.01267 0.0205 0.0117318 0.00943699 0.0214999 
0.0136121 0.00823524 0.0219347 0.00967881 0.00903013 0.0205 0.0155247 0.00906705 0.0205 
0.0125484 0.0109704 0.0205 0.00870188 0.0110741 0.0205 0.0149285 0.0131507 0.0214999 
0.0125392 0.0119814 0.0205 0.00977346 0.0102512 0.0207496 0.0116403 0.0115386 0.0205 
0.00975678 0.0102011 0.0219984 0.0118961 0.0127472 0.0205 0.0114385 0.0139707 0.0204998 
0.0126377 0.0137223 0.02075 0.0124643 0.0115661 0.0216765 0.00989653 0.0126972 0.0219997 
0.0103964 0.00833365 0.0205 0.0137308 0.0112897 0.0207499 0.0146459 0.0093644 0.021643 
0.015349 0.0105428 0.0209999 0.00980233 0.00837042 0.0220483 0.0138497 0.0113222 0.0222447 
0.0157475 0.00749577 0.0207499 0.0158132 0.0114579 0.022094 0.0153959 0.0106294 0.0224996 
0.0160078 0.011795 0.0205 0.0165108 0.00848403 0.0205 0.0225072 0.00726507 0.0210001 
0.0172709 0.00750727 0.0207497 0.0163973 0.00955528 0.0205 0.0169654 0.0125586 0.0207499 
0.0210158 0.00775307 0.0205 0.0187431 0.0111131 0.0217498 0.0207622 0.0101242 0.0216371 
0.0201436 0.00886802 0.0209999 0.0170534 0.0103099 0.0205 0.0194232 0.00765114 0.0204999 
0.0230001 0.00920308 0.0209997 0.0185595 0.00815812 0.0212477 0.0215764 0.00875547 0.0205 
0.0175545 0.00915417 0.02075 0.0168809 0.0112951 0.0205 0.0213764 0.0119275 0.0205 
0.0216313 0.0102651 0.0207499 0.0235 0.0105262 0.0205 0.0235 0.00804453 0.0218107 
0.0212975 0.00802571 0.0214572 0.0226274 0.0113861 0.0207495 0.0204067 0.0102575 0.0204999 
0.0223455 0.0128589 0.0207478 0.0228179 0.0140061 0.0205 0.020606 0.011289 0.0205 
0.0234995 0.0122558 0.0205 0.0176796 0.0131108 0.0217617 0.0215745 0.0121684 0.02145 
0.0235 0.0136594 0.0214214 0.0167892 0.0126025 0.0219866 0.0180188 0.0131831 0.0204999 
0.021551 0.00921346 0.0219809 0.018704 0.0139267 0.0205004 0.0189949 0.0129667 0.0204998 
0.0204777 0.0138617 0.0214998 0.022475 0.0139629 0.0214383 0.0165045 0.0115831 0.0213811 
0.0227632 0.0106034 0.0220214 0.0234999 0.0132707 0.0205 0.0235005 0.0115957 0.0216182 
0.0211577 0.0112669 0.0213337 0.0185468 0.0133656 0.0213294 0.0220133 0.00806708 0.0221676 
0.0187044 0.0132909 0.0223141 0.000500245 0.0148333 0.0220406 0.000502853 0.0147539 0.0205 
0.00331947 0.0160373 0.0205 0.00347772 0.0171122 0.0205 0.00772953 0.0158299 0.0207499 
0.00125099 0.0162041 0.0212498 0.00742086 0.0177416 0.02125 0.00505318 0.0169394 0.0212497 
0.00654915 0.0163544 0.0205 0.00782686 0.0154349 0.0219319 0.00638734 0.0194093 0.0207499 
0.000502322 0.0192878 0.0205 0.00760815 0.0193115 0.0204999 0.00571318 0.0183777 0.0205 
0.00667326 0.0159126 0.0218162 0.00382059 0.0196282 0.0217498 0.00580369 0.020791 0.0207499 
0.00112664 0.0207658 0.0209998 0.00304008 0.0169987 0.0216663 0.000845647 0.0180979 0.02075 
0.00620979 0.0190408 0.022193 0.000500024 0.0190659 0.021475 0.00222833 0.017802 0.0205096 
0.00252023 0.0210798 0.0205 0.00636249 0.0169697 0.0224104 0.00761454 0.0163905 0.0224862 
0.00805919 0.020827 0.0212498 0.00859681 0.0142295 0.0205 0.0136201 0.0144535 0.0205 
0.0133181 0.0144665 0.0214885 0.00829592 0.0163012 0.0217597 0.0156069 0.0147443 0.0204999 
0.00902886 0.0194878 0.0205 0.00878438 0.0188473 0.021228 0.00833072 0.0146304 0.0222465 
0.00988019 0.0212526 0.0225011 0.00899693 0.0181823 0.0205 0.00975883 0.0211492 0.0215139 
0.00899282 0.0151768 0.0212269 0.00946935 0.0168453 0.0209999 0.00981694 0.015205 0.0221664 
0.01115 0.0191205 0.0219998 0.0116389 0.015691 0.0214998 0.0143731 0.0158452 0.0212499 
0.0130665 0.0185254 0.0204999 0.010036 0.0148997 0.0205 0.0141827 0.0190357 0.0207539 
0.0138149 0.0178557 0.0204999 0.0151621 0.0182869 0.0205 0.0130353 0.0167235 0.0205 
0.0121054 0.017359 0.0204999 0.0130987 0.0196037 0.0205 0.00975234 0.020658 0.0205 
0.0136601 0.0200092 0.0214848 0.0117847 0.0210179 0.0205 0.0129939 0.0208239 0.0207498 
0.0159751 0.0151483 0.0213448 0.015113 0.0203157 0.0205 0.0129486 0.0176436 0.0209558 
0.0143509 0.0178097 0.0216282 0.0140913 0.0202659 0.0205 0.0149938 0.0173002 0.0205 
0.0157661 0.016665 0.0205001 0.0153443 0.0189623 0.0212145 0.0155036 0.0198063 0.0217566 
0.0146358 0.0202078 0.0213894 0.0138887 0.0190765 0.0222854 0.0136739 0.0170299 0.0223324 
0.0157464 0.0195348 0.0205 0.0131316 0.0209941 0.0223537 0.0157002 0.0170117 0.0214369 
0.0159337 0.0176508 0.0205 0.00891683 0.0180031 0.0221195 0.0128181 0.017263 0.021871 
0.0159523 0.0156826 0.0205 0.0147615 0.0199629 0.0224085 0.0149154 0.0210693 0.021816 
0.0139863 0.0211179 0.0214502 0.0151609 0.0169686 0.0223828 0.0142719 0.0212534 0.0204999 
0.0162058 0.0186133 0.0205 0.0171752 0.0143179 0.0209999 0.0186018 0.0145501 0.0214008 
0.0188297 0.0149185 0.0204998 0.0177105 0.0155898 0.0215918 0.0180853 0.0155885 0.0205 
0.0177326 0.0172496 0.0205 0.0221846 0.0151257 0.02075 0.0187197 0.0166441 0.0205 
0.0189388 0.0157676 0.0214103 0.0235001 0.0165021 0.0204997 0.0223108 0.016803 0.0207497 
0.0210487 0.0156037 0.0205 0.0201135 0.0164428 0.0204999 0.0186496 0.0176495 0.0205086 
0.0195832 0.0172905 0.0204999 0.0235002 0.0175019 0.0204997 0.0198077 0.0169592 0.0216932 
0.0170446 0.0162361 0.0207512 0.0207148 0.0177648 0.02075 0.0211006 0.0166023 0.0205 
0.0196067 0.0183123 0.0205 0.0210629 0.0198833 0.0205 0.0235 0.0145651 0.0209714 
0.0197202 0.0154188 0.0204996 0.0188639 0.0177579 0.0215001 0.0198632 0.0195128 0.0207499 
0.0184202 0.0188689 0.02075 0.0235 0.015447 0.0205 0.0225002 0.0189156 0.0214998 
0.0214009 0.0161542 0.0220963 0.0201812 0.015829 0.0212863 0.0232285 0.015976 0.0216002 
0.0176364 0.0179552 0.0212108 0.0234975 0.0205539 0.0204999 0.0189934 0.0207357 0.0207499 
0.020034 0.0205901 0.0214275 0.0235001 0.0206476 0.0214953 0.0235006 0.0171856 0.0214481 
0.019407 0.0185969 0.0214678 0.0180826 0.0166716 0.0212946 0.0207659 0.0199142 0.0215156 
[...]
POINT_DATA 2878
FIELD FieldData 7
id 1 2878 int
291 368 784 32 241 815 448 300 442 
816 710 527 100 153 722 864 503 561 
501 64 954 380 587 370 28 220 2736 
998 307 870 324 1195 121 228 490 199 
395 474 282 590 176 289 362 783 51 
233 217 549 126 676 209 730 764 311 
763 66 61 108 89 155 178 364 895 
598 581 161 159 204 219 333 142 200 
340 452 518 185 31 123 273 113 544 
577 652 290 281 57 143 853 106 1012 
109 256 75 887 274 1359 588 360 154 
13 879 137 44 1166 1234 323 820 1067 
713 881 943 673 174 447 737 646 508 
872 439 891 1190 479 911 296 35 196 
2621 1032 1085 171 1070 636 275 46 556 
287 865 756 318 686 10 569 252 188 
772 709 1061 1118 59 974 734 968 62 
1238 1028 1653 80 810 1080 192 1056 1883 
714 1922 6 190 1846 342 319 293 735 
308 49 146 578 90 71 659 967 130 
41 231 279 693 725 697 330 78 800 
538 1236 812 944 794 592 910 523 956 
350 639 1899 1138 272 770 1517 1498 1575 
2494 782 70 888 550 1 529 269 19 
1077 1060 1004 688 896 1660 972 223 700 
678 315 576 1094 1884 430 1293 1829 1331 
600 611 110 2226 436 43 877 1859 748 
1682 1570 1144 695 54 786 180 221 118 
717 1232 934 1310 1212 624 1035 1592 1697 
2033 1264 1164 2117 982 1448 2386 2420 2431 
2511 2287 2500 2378 2447 2086 1311 1601 2645 
1338 1376 2392 189 2630 1757 2594 2618 1577 
2460 139 1193 345 741 450 947 591 465 
719 628 42 747 813 787 492 238 1216 
1230 566 1333 1091 1398 1189 1427 898 1452 
1488 1124 1020 1401 1298 1170 1831 957 1320 
1598 1437 1184 1692 1828 1202 1460 1984 1738 
1648 2467 1963 1434 1796 1105 1865 1767 1929 
2072 2099 838 1416 1578 482 12 952 1439 
831 534 1423 1406 483 1483 1512 752 1805 
1576 1373 1860 1625 1455 1942 1926 1520 1143 
2021 980 1825 2481 2583 1893 2706 348 775 
1662 2759 2168 1702 2244 2852 1650 946 904 
1081 1343 1394 1698 1342 978 1208 1350 919 
780 353 1294 1180 1462 1467 1552 1602 1621 
861 1643 1539 1330 1192 1614 1693 1618 1221 
1915 1869 1655 2193 2263 2270 1753 862 1775 
2004 1958 2243 1017 2348 1955 144 1563 2603 
2121 2261 2026 2662 1876 2201 2403 2393 1755 
1935 2010 1931 1794 1219 152 1292 512 1288 
1048 1415 1087 1176 1269 1507 1574 1472 1590 
1634 908 1646 1927 1897 1370 1243 1978 1881 
1514 1925 1768 1527 1106 1323 1090 1837 1015 
1974 1267 2065 1758 2303 1910 2198 2162 1285 
1480 1103 138 162 259 522 337 638 506 
1084 1355 1451 412 1607 1529 1290 1449 1761 
1760 1611 2278 2306 2343 2387 2407 2421 2493 
672 2537 1872 1792 2484 2573 2427 1993 2455 
2622 1291 2548 2570 897 1168 2337 2449 1136 
2381 2530 2456 1987 1870 2301 505 886 1249 
1154 609 1134 1340 1678 1703 1095 1815 1348 
1594 2043 1867 1793 2242 2245 2266 1954 924 
1762 640 2323 2362 2347 1361 2202 2451 1083 
835 2305 2225 2408 2304 2444 2574 698 2317 
2404 2390 2376 2252 2577 2505 2439 2247 1786 
2469 2412 2345 1854 2297 2379 1409 1113 1044 
557 304 1142 1335 1414 1016 1531 1329 1318 
1305 1258 1695 1224 878 1213 1447 1603 1403 
1445 1362 1442 1626 1534 1579 1468 1227 1812 
2044 959 2008 1699 2478 2311 809 1420 2382 
1073 249 535 844 366 680 733 1108 316 
1276 91 2422 2458 1177 2542 457 451 2629 
2527 2634 2713 2553 1679 1568 2694 1309 2689 
2152 2534 2692 2551 2359 2554 1281 2018 1000 
2856 1424 1167 960 471 1353 1419 1019 1043 
1107 901 1149 1482 1265 1705 1716 912 1346 
1743 1661 1181 1802 2083 2003 2194 2275 2389 
2032 2452 2454 2284 2416 2499 2510 2516 2535 
2094 2488 2581 2217 1544 2632 1708 1674 2391 
2674 1882 1746 2720 2027 2737 2417 2536 856 
2471 2239 2461 2398 2349 2108 1273 889 1862 
986 1145 1120 909 268 1278 1033 1307 1018 
973 1148 990 1003 374 394 326 650 848 
993 996 892 1261 1117 1268 1422 1663 1559 
1709 1051 1506 1747 1549 1023 876 981 1011 
1819 811 1101 1803 1877 1140 1727 1165 1657 
2373 2267 2203 1827 2308 2552 2428 949 1372 
626 615 1537 1179 1186 682 1301 1497 519 
247 309 554 1215 570 386 433 1432 1357 
1909 1822 545 1443 1681 1953 2501 533 2560 
1404 1745 1895 2219 1635 2192 2459 2123 1644 
2712 1996 1645 2204 2579 1191 1985 668 2344 
2380 1902 669 802 1131 641 1741 1930 1622 
1487 514 1484 621 1777 328 1571 1100 883 
453 1194 1240 1701 1713 1766 1486 1807 985 
1864 1188 1319 1889 1511 1688 1548 1689 1788 
1097 1530 1133 1123 2047 1543 1024 1608 1513 
1444 1490 1297 2169 1948 2503 1494 1988 1933 
969 1334 1135 1546 1431 1062 499 804 970 
1155 1271 1289 963 1299 1411 1426 847 1088 
927 1430 1855 1951 1632 1671 1728 2029 1509 
1205 1521 1286 1551 1863 1957 859 1026 1384 
1481 2172 1351 1378 2185 1901 236 584 1664 
987 608 814 762 1853 1030 920 1390 579 
1242 1596 423 1251 855 712 543 402 3 
740 265 674 1547 1174 495 1995 2195 1569 
1834 1824 1848 1873 2024 278 424 2282 2187 
347 1387 2073 2146 2151 242 2087 40 1306 
1565 335 405 1201 371 496 1151 792 1089 
467 1656 1538 649 1332 431 976 1907 1156 
1383 593 1169 2214 1630 2356 2046 1776 1146 
2350 1721 1956 711 2318 1748 502 1994 2274 
1510 2224 2450 1115 1327 931 1322 11 2163 
917 2059 1477 935 485 1363 410 168 133 
769 776 702 415 573 73 785 661 1102 
690 829 777 1200 808 687 1683 531 1676 
846 124 2514 1750 1005 470 258 74 689 
1801 1459 1800 1658 1402 1550 788 354 1382 
603 145 704 658 977 1453 1616 1421 551 
122 230 1260 637 525 866 194 357 567 
510 487 936 1058 1054 1524 620 607 94 
797 88 331 1199 1466 267 1706 489 781 
923 147 81 493 760 1010 580 1127 1171 
1218 1237 1255 1354 1393 1175 778 716 1277 
1368 1248 1782 1740 414 1352 24 1980 1668 
116 595 26 1045 1132 361 884 721 1079 
727 1112 129 1428 428 1615 112 1456 8 
653 306 48 863 445 222 186 455 45 
313 477 851 38 438 67 564 179 1751 
1642 1585 1037 642 526 271 411 1074 84 
469 696 255 1052 882 355 1129 1280 478 
2546 768 1055 18 773 791 665 378 899 
379 1187 421 244 446 381 165 1076 105 
218 694 806 634 264 7 1163 854 96 
251 2211 922 1425 2241 2315 2496 2569 1034 
2295 619 766 86 314 226 2507 771 894 
1612 574 532 667 373 860 703 926 736 
325 720 102 1283 1039 1304 1316 1433 1599 
1345 464 1160 1789 1556 2233 2098 540 795 
187 197 1071 1159 473 140 1125 1204 1126 
344 964 157 104 456 225 39 117 14 
589 131 418 377 1226 2636 2704 2724 2726 
2602 1182 2688 2669 2841 2842 2771 52 953 
1279 948 332 558 745 76 299 629 351 
210 149 69 565 560 22 744 644 132 
56 215 53 284 869 183 2058 2218 107 
651 2236 417 757 2533 513 468 2848 2851 
101 1185 559 20 184 443 29 422 182 
302 288 87 125 79 195 435 173 277 
206 563 605 664 393 1013 630 1042 516 
498 239 1114 407 141 298 257 163 235 
2620 458 376 201 134 398 358 329 93 
481 655 85 253 312 606 746 166 2687 
2768 2783 1979 2810 2814 294 390 486 842 
1492 596 388 466 151 599 320 156 175 
997 971 208 583 929 548 472 1284 463 
406 633 731 823 98 1429 850 286 1557 
212 399 1066 1816 940 1778 836 824 99 
2209 1364 2109 2721 1374 2872 536 979 839 
369 515 392 868 625 494 684 774 942 
148 25 170 34 507 524 15 572 845 
613 1065 1116 5 604 723 759 459 1038 
322 2 1064 1397 425 724 841 2066 16 
1903 663 1326 2584 1392 758 2212 47 1203 
365 160 17 92 202 136 211 115 372 
334 77 631 164 1072 989 585 801 1082 
419 1111 983 120 962 400 1315 1296 1210 
1454 726 1502 1473 1515 1525 1495 837 1436 
975 1489 1610 1769 1110 2126 1233 1446 1496 
1629 2186 2036 1694 2069 1369 2093 2078 1754 
657 427 1379 1407 237 521 1567 1617 1053 
685 401 1001 488 742 617 343 1029 647 
718 1295 1198 675 2038 409 1582 915 2240 
1535 1270 1122 1972 1130 1314 1078 1339 627 
509 97 1410 1225 798 1104 1022 1197 1257 
571 938 858 941 958 1040 893 890 1086 
1096 213 1231 1324 715 932 2184 2015 1969 
2039 553 2475 2360 2388 2476 198 2309 1817 
2725 826 2758 2787 2429 2001 2862 1960 1457 
2237 984 789 1717 2166 1493 833 874 33 
30 432 172 648 677 691 1256 1312 1458 
1021 1229 1287 1558 1566 1770 1542 1639 1814 
937 594 1934 1977 1349 1519 1764 1250 2067 
1832 1560 1672 1441 2118 1670 1874 2006 662 
2525 2426 1253 1961 2529 1450 2615 2812 2049 
2031 1388 2023 1826 832 285 504 928 1696 
1508 36 2060 1627 1302 2207 1613 1890 2253 
1667 2576 2134 2355 1726 1835 1687 2254 2614 
1772 1196 1247 1545 2090 1765 476 1677 1840 
2289 2293 2294 2352 2397 2068 2413 2425 2433 
2434 2442 1763 2473 2492 2509 2524 2562 2609 
2260 2648 2664 1711 2681 2598 2784 2793 2395 
2867 2875 1651 1774 582 260 2265 2385 1137 
542 1413 1440 1377 1714 1734 1356 1941 1964 
1914 2028 2035 2106 1371 2171 2191 1917 1858 
2396 1386 1516 1885 2464 2470 2009 2547 2556 
2587 2596 2248 2670 2691 2743 2769 2781 1604 
2821 1636 2860 1474 2846 1680 1491 991 338 
245 1584 1861 1139 1918 1669 1808 1991 1998 
2000 1583 2020 1581 1975 2208 2002 1209 2199 
2290 1986 1806 2122 2406 2437 2110 2231 2292 
1609 2565 2435 1939 2363 2354 2776 2798 2813 
2824 2833 2836 2864 2550 2607 2180 1673 2608 
1275 2143 2411 1771 2097 2491 2196 1041 2310 
1659 1989 2131 2135 2229 2279 2319 2326 2338 
2377 2419 2515 2269 2613 2616 2646 2650 2652 
2656 1025 2463 2479 2710 2468 2714 2719 2727 
2440 2786 2855 2708 2575 1842 2523 2232 1981 
1790 1121 1729 1868 305 1461 1932 2013 2022 
1606 2188 2215 1654 2257 2259 1263 2325 2181 
2333 2341 2365 2400 2405 2430 2495 2522 2557 
2559 2572 2610 1438 2641 2644 1381 2675 2685 
2695 2696 2705 2709 2734 2752 2760 2800 2808 
2816 2834 2847 2849 2423 2779 2671 2371 2141 
1141 1007 2100 2145 2164 2142 2154 2330 2394 
2564 1733 2589 2604 2626 2628 2631 2633 2637 
2639 2660 2666 60 2686 2697 2528 2718 2679 
2738 1417 2772 2818 1464 2873 2612 2532 2438 
2324 2249 2332 2357 2410 2443 2453 2502 2517 
2519 2585 2586 2327 2619 2625 2627 2647 2661 
2672 2676 2690 2693 2446 2716 2757 2797 2803 
2161 2827 2837 2845 2863 2258 2487 1587 2272 
2409 2361 1647 2228 2302 1821 2190 1147 2173 
1093 1528 1047 900 1399 1561 1983 1161 2316 
2369 2418 2508 2521 2582 2623 1844 2711 2749 
2756 2770 2795 2801 2819 2823 2828 2543 1533 
2684 2485 1908 2052 2128 2089 1736 749 1435 
1780 1851 1949 2273 2578 2591 2595 2597 2600 
2658 2665 2680 2715 2717 2739 2741 2747 2753 
2754 2755 2794 2807 2840 2859 2871 2874 2125 
2673 2448 2624 1947 1923 1965 1898 2329 2335 
2366 2445 2482 2486 2489 2504 2555 2566 2567 
2590 2605 2642 2643 2651 2655 2707 2728 2729 
2730 2732 2744 2763 2773 2778 2780 2790 2796 
2799 2804 2805 2545 2526 2839 2843 2865 2868 
2869 2235 2593 1943 1572 2520 925 2291 2544 
1911 2053 1818 1880 1400 2074 2271 2280 2216 
2103 1891 1222 1724 1852 2014 2034 2045 2051 
2112 2182 2264 2276 2281 2312 2513 2571 2588 
2599 2638 2663 2677 2682 2683 2699 2700 2723 
2742 2746 2767 2774 2792 2831 2854 2870 2017 
2667 1624 1536 2007 1967 2606 2153 1843 2107 
1152 1920 1469 2057 1245 1944 1720 2084 1715 
1847 597 623 1945 2096 2124 2174 2223 2531 
2558 2561 2654 2735 2750 1936 2764 2788 2817 
2346 2506 2436 1600 2256 1586 1652 1962 1591 
2165 1950 2019 1813 1928 1470 1887 1597 1385 
1666 1690 1838 1938 1982 2041 1485 2113 2210 
2299 2364 2512 2518 2541 2592 2649 2136 1990 
2733 2748 2765 2777 2785 2806 1623 602 2177 
1691 1465 2205 1254 2220 2175 2296 2037 1866 
2321 1684 2336 2133 2246 1722 2092 1912 1798 
1628 2075 2129 1894 2150 1823 1871 1375 1554 
1317 950 1641 1049 1235 1730 1892 1905 2080 
2189 2050 2222 2268 1742 2370 2375 1518 2809 
2653 2160 2255 2085 2055 2277 2147 1799 1731 
1619 454 1785 2005 2149 2139 261 1098 875 
2064 1959 2120 2130 1833 2081 1707 2102 500 
2339 2040 2030 2288 1992 1396 2011 1262 999 
799 1476 1540 1580 1896 2095 2115 2116 2127 
2183 2200 1718 2286 2313 2358 2399 2320 2668 
2740 1092 2762 2802 2322 2844 1759 2230 2148 
1640 2167 2251 1504 2071 1787 921 1075 753 
1752 2206 2178 654 2262 2158 1478 2111 1971 
1162 705 821 1756 1797 1875 2062 2170 2213 
2227 2298 2314 2342 2432 2441 1685 2457 2465 
2477 2483 2498 1700 396 2635 2703 2307 1820 
965 2384 2751 2138 2791 2822 1966 1725 2076 
1367 2048 1916 1620 1749 426 1773 1595 966 
2334 670 1638 367 1573 2179 2340 1408 961 
1952 1391 1068 939 520 885 356 880 930 
994 341 671 2159 2353 1675 728 834 1937 
1282 739 1779 1735 822 1810 2490 1501 1781 
2331 2424 2104 807 2563 1564 1849 1723 1940 
1841 701 2402 1888 1244 1900 1128 2101 1857 
2016 738 1344 2144 2132 1878 2012 916 1605 
441 1997 1633 1830 1976 462 537 1737 1503 
852 1036 1856 1999 2061 2077 1845 2140 1336 
2082 2137 2466 1252 1886 1500 403 903 2114 
2285 2474 1631 2568 2300 907 1593 1308 1220 
1157 2176 2157 1471 382 1412 1059 1150 1463 
1879 1946 1970 352 2042 1246 2054 2056 1732 
2105 1366 1223 2414 616 2472 2538 2539 2540 
2549 1924 547 2611 511 491 1499 955 827 
1589 2088 1031 1921 1804 1649 1395 303 2367 
1744 1347 1919 2070 2155 1968 384 1009 632 
1099 1526 1069 1588 706 327 1719 346 754 
150 227 793 914 1008 1109 2250 828 1811 
2025 575 461 643 413 913 1178 707 301 
905 871 1913 803 902 562 645 610 280 
2580 250 2678 191 266 2761 843 2197 2401 
2497 2156 2238 1214 1973 2221 1523 37 1712 
528 1704 1241 1839 555 1904 601 1836 840 
765 1739 437 945 1553 933 1274 1207 55 
767 383 614 193 1153 475 2374 2415 2462 
444 2601 790 2328 2640 2701 2091 2480 830 
2234 1906 2383 1217 1272 2063 103 1300 681 
397 660 1057 1522 1228 692 1266 1532 796 
1158 1173 1183 699 1259 1303 1360 1365 1637 
1710 1783 1791 1809 1505 1479 2283 387 1325 
2617 817 416 321 1389 317 1686 656 2702 
1475 951 743 873 679 541 586 385 779 
992 1239 181 857 2351 9 2659 2722 2775 
2789 2745 2766 297 2657 2815 2820 2825 2829 
2830 517 2832 2835 2838 2850 2858 2861 2866 
167 229 906 363 1562 50 95 1541 263 
729 988 375 1358 750 243 270 849 708 
1014 276 539 295 1119 1027 761 732 4 
283 119 635 1002 818 1321 1341 1784 1211 
2368 1063 1418 819 618 568 114 292 254 
622 207 449 1172 2119 1050 1313 867 349 
205 216 1380 203 1206 232 1006 128 82 
434 127 497 359 72 546 262 420 23 
805 825 918 2372 2079 666 1795 158 1850 
1046 995 83 1337 1555 1665 389 404 68 
2853 683 1405 214 234 408 552 1328 755 
612 391 484 530 480 440 65 248 63 
135 169 246 336 339 224 429 111 58 
177 310 240 21 27 460 751 2698 2731 
2782 2811 2826 2857 2876 2877 2878 
type 1 2878 int
1 1 1 1 1 1 1 1 1 
1 1 1 1 1 1 1 1 1 
1 1 1 1 1 1 1 1 1 
1 1 1 1 1 1 1 1 1 
1 1 1 1 1 1 1 1 1 
1 1 1 1 1 1 1 1 1 
1 1 1 1 1 1 1 1 1 
1 1 1 1 1 1 1 1 1 
1 1 1 1 1 1 1 1 1 
1 1 1 1 1 1 1 1 1 
1 1 1 1 1 1 1 1 1 
1 1 1 1 1 1 1 1 1 
1 1 1 1 1 1 1 1 1 
1 1 1 1 1 1 1 1 1 
1 1 1 1 1 1 1 1 1 
1 1 1 1 1 1 1 1 1 
1 1 1 1 1 1 1 1 1 
1 1 1 1 1 1 1 1 1 
1 1 1 1 1 1 1 1 1 
1 1 1 1 1 1 1 1 1 
1 1 1 1 1 1 1 1 1 
1 1 1 1 1 1 1 1 1 
1 1 1 1 1 1 1 1 1 
1 1 1 1 1 1 1 1 1 
1 1 1 1 1 1 1 1 1 
1 1 1 1 1 1 1 1 1 
1 1 1 1 1 1 1 1 1 
1 1 1 1 1 1 1 1 1 
1 1 1 1 1 1 1 1 1 
1 1 1 1 1 1 1 1 1 
1 1 1 1 1 1 1 1 1 
1 1 1 1 1 1 1 1 1 
1 1 1 1 1 1 1 1 1 
1 1 1 1 1 1 1 1 1 
1 1 1 1 1 1 1 1 1 
1 1 1 1 1 1 1 1 1 
1 1 1 1 1 1 1 1 1 
1 1 1 1 1 1 1 1 1 
1 1 1 1 1 1 1 1 1 
1 1 1 1 1 1 1 1 1 
1 1 1 1 1 1 1 1 1 
1 1 1 1 1 1 1 1 1 
1 1 1 1 1 1 1 1 1 
1 1 1 1 1 1 1 1 1 
1 1 1 1 1 1 1 1 1 
1 1 1 1 1 1 1 1 1 
1 1 1 1 1 1 1 1 1 
1 1 1 1 1 1 1 1 1 
1 1 1 1 1 1 1 1 1 
1 1 1 1 1 1 1 1 1 
1 1 1 1 1 1 1 1 1 
1 1 1 1 1 1 1 1 1 
1 1 1 1 1 1 1 1 1 
1 1 1 1 1 1 1 1 1 
1 1 1 1 1 1 1 1 1 
1 1 1 1 1 1 1 1 1 
1 1 1 1 1 1 1 1 1 
1 1 1 1 1 1 1 1 1 
1 1 1 1 1 1 1 1 1 
1 1 1 1 1 1 1 1 1 
1 1 1 1 1 1 1 1 1 
1 1 1 1 1 1 1 1 1 
1 1 1 1 1 1 1 1 1 
1 1 1 1 1 1 1 1 1 
1 1 1 1 1 1 1 1 1 
1 1 1 1 1 1 1 1 1 
1 1 1 1 1 1 1 1 1 
1 1 1 1 1 1 1 1 1 
1 1 1 1 1 1 1 1 1 
1 1 1 1 1 1 1 1 1 
1 1 1 1 1 1 1 1 1 
1 1 1 1 1 1 1 1 1 
1 1 1 1 1 1 1 1 1 
1 1 1 1 1 1 1 1 1 
1 1 1 1 1 1 1 1 1 
1 1 1 1 1 1 1 1 1 
1 1 1 1 1 1 1 1 1 
1 1 1 1 1 1 1 1 1 
1 1 1 1 1 1 1 1 1 
1 1 1 1 1 1 1 1 1 
1 1 1 1 1 1 1 1 1 
1 1 1 1 1 1 1 1 1 
1 1 1 1 1 1 1 1 1 
1 1 1 1 1 1 1 1 1 
1 1 1 1 1 1 1 1 1 
1 1 1 1 1 1 1 1 1 
1 1 1 1 1 1 1 1 1 
1 1 1 1 1 1 1 1 1 
1 1 1 1 1 1 1 1 1 
1 1 1 1 1 1 1 1 1 
1 1 1 1 1 1 1 1 1 
1 1 1 1 1 1 1 1 1 
1 1 1 1 1 1 1 1 1 
1 1 1 1 1 1 1 1 1 
1 1 1 1 1 1 1 1 1 
1 1 1 1 1 1 1 1 1 
1 1 1 1 1 1 1 1 1 
1 1 1 1 1 1 1 1 1 
1 1 1 1 1 1 1 1 1 
1 1 1 1 1 1 1 1 1 
1 1 1 1 1 1 1 1 1 
1 1 1 1 1 1 1 1 1 
1 1 1 1 1 1 1 1 1 
1 1 1 1 1 1 1 1 1 
1 1 1 1 1 1 1 1 1 
1 1 1 1 1 1 1 1 1 
1 1 1 1 1 1 1 1 1 
1 1 1 1 1 1 1 1 1 
1 1 1 1 1 1 1 1 1 
1 1 1 1 1 1 1 1 1 
1 1 1 1 1 1 1 1 1 
1 1 1 1 1 1 1 1 1 
1 1 1 1 1 1 1 1 1 
1 1 1 1 1 1 1 1 1 
1 1 1 1 1 1 1 1 1 
1 1 1 1 1 1 1 1 1 
1 1 1 1 1 1 1 1 1 
1 1 1 1 1 1 1 1 1 
1 1 1 1 1 1 1 1 1 
1 1 1 1 1 1 1 1 1 
1 1 1 1 1 1 1 1 1 
1 1 1 1 1 1 1 1 1 
1 1 1 1 1 1 1 1 1 
1 1 1 1 1 1 1 1 1 
1 1 1 1 1 1 1 1 1 
1 1 1 1 1 1 1 1 1 
1 1 1 1 1 1 1 1 1 
1 1 1 1 1 1 1 1 1 
1 1 1 1 1 1 1 1 1 
1 1 1 1 1 1 1 1 1 
1 1 1 1 1 1 1 1 1 
1 1 1 1 1 1 1 1 1 
1 1 1 1 1 1 1 1 1 
1 1 1 1 1 1 1 1 1 
1 1 1 1 1 1 1 1 1 
1 1 1 1 1 1 1 1 1 
1 1 1 1 1 1 1 1 1 
1 1 1 1 1 1 1 1 1 
1 1 1 1 1 1 1 1 1 
1 1 1 1 1 1 1 1 1 
1 1 1 1 1 1 1 1 1 
1 1 1 1 1 1 1 1 1 
1 1 1 1 1 1 1 1 1 
1 1 1 1 1 1 1 1 1 
1 1 1 1 1 1 1 1 1 
1 1 1 1 1 1 1 1 1 
1 1 1 1 1 1 1 1 1 
1 1 1 1 1 1 1 1 1 
1 1 1 1 1 1 1 1 1 
1 1 1 1 1 1 1 1 1 
1 1 1 1 1 1 1 1 1 
1 1 1 1 1 1 1 1 1 
1 1 1 1 1 1 1 1 1 
1 1 1 1 1 1 1 1 1 
1 1 1 1 1 1 1 1 1 
1 1 1 1 1 1 1 1 1 
1 1 1 1 1 1 1 1 1 
1 1 1 1 1 1 1 1 1 
1 1 1 1 1 1 1 1 1 
1 1 1 1 1 1 1 1 1 
1 1 1 1 1 1 1 1 1 
1 1 1 1 1 1 1 1 1 
1 1 1 1 1 1 1 1 1 
1 1 1 1 1 1 1 1 1 
1 1 1 1 1 1 1 1 1 
1 1 1 1 1 1 1 1 1 
1 1 1 1 1 1 1 1 1 
1 1 1 1 1 1 1 1 1 
1 1 1 1 1 1 1 1 1 
1 1 1 1 1 1 1 1 1 
1 1 1 1 1 1 1 1 1 
1 1 1 1 1 1 1 1 1 
1 1 1 1 1 1 1 1 1 
1 1 1 1 1 1 1 1 1 
1 1 1 1 1 1 1 1 1 
1 1 1 1 1 1 1 1 1 
1 1 1 1 1 1 1 1 1 
1 1 1 1 1 1 1 1 1 
1 1 1 1 1 1 1 1 1 
1 1 1 1 1 1 1 1 1 
1 1 1 1 1 1 1 1 1 
1 1 1 1 1 1 1 1 1 
1 1 1 1 1 1 1 1 1 
1 1 1 1 1 1 1 1 1 
1 1 1 1 1 1 1 1 1 
1 1 1 1 1 1 1 1 1 
1 1 1 1 1 1 1 1 1 
1 1 1 1 1 1 1 1 1 
1 1 1 1 1 1 1 1 1 
1 1 1 1 1 1 1 1 1 
1 1 1 1 1 1 1 1 1 
1 1 1 1 1 1 1 1 1 
1 1 1 1 1 1 1 1 1 
1 1 1 1 1 1 1 1 1 
1 1 1 1 1 1 1 1 1 
1 1 1 1 1 1 1 1 1 
1 1 1 1 1 1 1 1 1 
1 1 1 1 1 1 1 1 1 
1 1 1 1 1 1 1 1 1 
1 1 1 1 1 1 1 1 1 
1 1 1 1 1 1 1 1 1 
1 1 1 1 1 1 1 1 1 
1 1 1 1 1 1 1 1 1 
1 1 1 1 1 1 1 1 1 
1 1 1 1 1 1 1 1 1 
1 1 1 1 1 1 1 1 1 
1 1 1 1 1 1 1 1 1 
1 1 1 1 1 1 1 1 1 
1 1 1 1 1 1 1 1 1 
1 1 1 1 1 1 1 1 1 
1 1 1 1 1 1 1 1 1 
1 1 1 1 1 1 1 1 1 
1 1 1 1 1 1 1 1 1 
1 1 1 1 1 1 1 1 1 
1 1 1 1 1 1 1 1 1 
1 1 1 1 1 1 1 1 1 
1 1 1 1 1 1 1 1 1 
1 1 1 1 1 1 1 1 1 
1 1 1 1 1 1 1 1 1 
1 1 1 1 1 1 1 1 1 
1 1 1 1 1 1 1 1 1 
1 1 1 1 1 1 1 1 1 
1 1 1 1 1 1 1 1 1 
1 1 1 1 1 1 1 1 1 
1 1 1 1 1 1 1 1 1 
1 1 1 1 1 1 1 1 1 
1 1 1 1 1 1 1 1 1 
1 1 1 1 1 1 1 1 1 
1 1 1 1 1 1 1 1 1 
1 1 1 1 1 1 1 1 1 
1 1 1 1 1 1 1 1 1 
1 1 1 1 1 1 1 1 1 
1 1 1 1 1 1 1 1 1 
1 1 1 1 1 1 1 1 1 
1 1 1 1 1 1 1 1 1 
1 1 1 1 1 1 1 1 1 
1 1 1 1 1 1 1 1 1 
1 1 1 1 1 1 1 1 1 
1 1 1 1 1 1 1 1 1 
1 1 1 1 1 1 1 1 1 
1 1 1 1 1 1 1 1 1 
1 1 1 1 1 1 1 1 1 
1 1 1 1 1 1 1 1 1 
1 1 1 1 1 1 1 1 1 
1 1 1 1 1 1 1 1 1 
1 1 1 1 1 1 1 1 1 
1 1 1 1 1 1 1 1 1 
1 1 1 1 1 1 1 1 1 
1 1 1 1 1 1 1 1 1 
1 1 1 1 1 1 1 1 1 
1 1 1 1 1 1 1 1 1 
1 1 1 1 1 1 1 1 1 
1 1 1 1 1 1 1 1 1 
1 1 1 1 1 1 1 1 1 
1 1 1 1 1 1 1 1 1 
1 1 1 1 1 1 1 1 1 
1 1 1 1 1 1 1 1 1 
1 1 1 1 1 1 1 1 1 
1 1 1 1 1 1 1 1 1 
1 1 1 1 1 1 1 1 1 
1 1 1 1 1 1 1 1 1 
1 1 1 1 1 1 1 1 1 
1 1 1 1 1 1 1 1 1 
1 1 1 1 1 1 1 1 1 
1 1 1 1 1 1 1 1 1 
1 1 1 1 1 1 1 1 1 
1 1 1 1 1 1 1 1 1 
1 1 1 1 1 1 1 1 1 
1 1 1 1 1 1 1 1 1 
1 1 1 1 1 1 1 1 1 
1 1 1 1 1 1 1 1 1 
1 1 1 1 1 1 1 1 1 
1 1 1 1 1 1 1 1 1 
1 1 1 1 1 1 1 1 1 
1 1 1 1 1 1 1 1 1 
1 1 1 1 1 1 1 1 1 
1 1 1 1 1 1 1 1 1 
1 1 1 1 1 1 1 1 1 
1 1 1 1 1 1 1 1 1 
1 1 1 1 1 1 1 1 1 
1 1 1 1 1 1 1 1 1 
1 1 1 1 1 1 1 1 1 
1 1 1 1 1 1 1 1 1 
1 1 1 1 1 1 1 1 1 
1 1 1 1 1 1 1 1 1 
1 1 1 1 1 1 1 1 1 
1 1 1 1 1 1 1 1 1 
1 1 1 1 1 1 1 1 1 
1 1 1 1 1 1 1 1 1 
1 1 1 1 1 1 1 1 1 
1 1 1 1 1 1 1 1 1 
1 1 1 1 1 1 1 1 1 
1 1 1 1 1 1 1 1 1 
1 1 1 1 1 1 1 1 1 
1 1 1 1 1 1 1 1 1 
1 1 1 1 1 1 1 1 1 
1 1 1 1 1 1 1 1 1 
1 1 1 1 1 1 1 1 1 
1 1 1 1 1 1 1 1 1 
1 1 1 1 1 1 1 1 1 
1 1 1 1 1 1 1 1 1 
1 1 1 1 1 1 1 1 1 
1 1 1 1 1 1 1 1 1 
1 1 1 1 1 1 1 1 1 
1 1 1 1 1 1 1 1 1 
1 1 1 1 1 1 1 1 1 
1 1 1 1 1 1 1 1 1 
1 1 1 1 1 1 1 1 1 
1 1 1 1 1 1 1 1 1 
1 1 1 1 1 1 1 1 1 
1 1 1 1 1 1 1 1 1 
1 1 1 1 1 1 1 1 1 
1 1 1 1 1 1 1 1 1 
1 1 1 1 1 1 1 1 1 
1 1 1 1 1 1 1 1 1 
1 1 1 1 1 1 1 1 1 
1 1 1 1 1 1 1 1 1 
1 1 1 1 1 1 1 1 1 
1 1 1 1 1 1 1 1 1 
1 1 1 1 1 1 1 
i 3 2878 int
0 0 0 0 0 0 0 0 0 
0 0 0 0 0 0 0 0 0 
0 0 0 0 0 0 0 0 0 
0 0 0 0 0 0 0 0 0 
0 0 0 0 0 0 0 0 0 
0 0 0 0 0 0 0 0 0 
0 0 0 0 0 0 0 0 0 
0 0 0 0 0 0 0 0 0 
0 0 0 0 0 0 0 0 0 
0 0 0 0 0 0 0 0 0 
0 0 0 0 0 0 0 0 0 
0 0 0 0 0 0 0 0 0 