# vtk DataFile Version 4.0
Generated by LIGGGHTS
ASCII
DATASET POLYDATA
POINTS 1046 float
0.00479089 0.00450464 0.0219998 0.00236517 0.00163282 0.0214999 0.00720225 0.00361513 0.0207554 
0.000779179 0.000885564 0.0205 0.00577772 0.00226167 0.02075 0.00740855 0.00073298 0.0205 
0.00775608 0.000993001 0.0223953 0.00550381 0.000888184 0.0205028 0.00105152 0.00328186 0.0205 
0.00255119 0.00475702 0.0205 0.00739681 0.00539745 0.0205 0.000501396 0.000501108 0.0214687 
0.00101955 0.00529436 0.0216914 0.00438796 0.00208532 0.0209923 0.00643363 0.000499842 0.0205 
0.000655341 0.00629593 0.0205 0.00861445 0.0048361 0.0219719 0.0144978 0.00186148 0.0205 
0.0119159 0.00306912 0.0205059 0.0150118 0.000749943 0.0207503 0.0129065 0.00293483 0.0205186 
0.01228 0.002068 0.0205 0.0138555 0.000508862 0.0213517 0.0123773 0.00230762 0.0221729 
0.013545 0.00216483 0.0205088 0.0101878 0.000527789 0.0210073 0.00879004 0.000775518 0.02075 
0.0112086 0.003352 0.0211529 0.0151832 0.0025898 0.0205006 0.010179 0.00179231 0.02075 
0.0125728 0.00398811 0.0205 0.011852 0.00508154 0.0205 0.00985471 0.00213551 0.0224708 
0.0133249 0.00632089 0.0208665 0.00843686 0.0066209 0.0214705 0.012382 0.00332899 0.021406 
0.0143001 0.00404363 0.0215781 0.010242 0.00491939 0.0205171 0.0108731 0.00095883 0.0219657 
0.0126007 0.00622847 0.0223282 0.014427 0.00572334 0.0205 0.00918223 0.00137492 0.0218095 
0.0102992 0.00586888 0.0220203 0.0165118 0.000752135 0.02075 0.0232501 0.000749904 0.0207497 
0.022495 0.00356844 0.0205 0.0234982 0.00345069 0.0205 0.0214855 0.00256881 0.0209999 
0.016762 0.00270611 0.0212539 0.0232486 0.00497095 0.0221872 0.0232428 0.00224985 0.0207499 
0.0216229 0.00443462 0.02075 0.0231226 0.00542414 0.02075 0.0234223 0.00666804 0.0205 
0.0208736 0.00391142 0.0219409 0.0186525 0.00443528 0.02125 0.0167379 0.00444044 0.0215629 
0.0166026 0.00429322 0.0205 0.0193433 0.00150032 0.0217377 0.0230001 0.00100148 0.0224631 
0.0164057 0.00602545 0.0207604 0.0229984 0.00319593 0.0222017 0.0201604 0.00526944 0.0205 
0.0203032 0.00559266 0.0222502 0.00318143 0.00720502 0.0205 0.00605203 0.00997887 0.0205 
0.00476392 0.0123512 0.0205 0.00257232 0.00873138 0.0210614 0.00595824 0.0112378 0.0205 
0.000789809 0.00829202 0.02075 0.000503583 0.00700964 0.0212301 0.00593672 0.0122659 0.0216918 
0.00150247 0.0110541 0.0214999 0.00761982 0.00982548 0.0205 0.00301504 0.010135 0.0205 
0.000500853 0.0125554 0.0205 0.00055938 0.00929063 0.0214701 0.00460111 0.00910211 0.0210979 
0.000550445 0.0135542 0.0205 0.00050263 0.00790542 0.0219489 0.00825297 0.0127385 0.0214999 
0.0134186 0.00986738 0.02075 0.0132444 0.00793924 0.02075 0.015965 0.0103765 0.0209999 
0.0122756 0.0125582 0.02075 0.0136396 0.0127352 0.0213764 0.0119693 0.0137498 0.0205 
0.0152693 0.0129938 0.0205778 0.0132513 0.0112509 0.0205 0.010822 0.00997725 0.021754 
0.0132904 0.0082184 0.0223691 0.0116732 0.00783916 0.0205 0.0121946 0.0113709 0.021175 
0.0148981 0.00707982 0.0210006 0.0147166 0.00939505 0.0222539 0.0127627 0.0105982 0.0215353 
0.0149228 0.013944 0.0205141 0.0192139 0.00810555 0.02075 0.0216997 0.00951273 0.0205025 
0.0216091 0.00758912 0.0215015 0.0231167 0.00862763 0.0205102 0.0228307 0.00984977 0.0214392 
0.0184699 0.0112541 0.0217499 0.0204544 0.0124314 0.0214287 0.0214378 0.011228 0.0210003 
0.0191454 0.00934527 0.0205 0.0205564 0.00978157 0.0205 0.0202044 0.00892722 0.0209965 
0.0159462 0.0121441 0.0205188 0.0229998 0.0124853 0.0211933 0.0165009 0.0138206 0.0210011 
0.0206369 0.00995594 0.0218969 0.0208556 0.0125168 0.0205001 0.0197994 0.00874138 0.0221781 
0.0176451 0.00894388 0.0205 0.0193505 0.0133686 0.0219436 0.0216123 0.0134782 0.0207572 
0.0234014 0.0137969 0.0205 0.0197194 0.00748876 0.0221787 0.00524131 0.014342 0.02075 
0.00562047 0.0164514 0.0212514 0.00282322 0.0181776 0.0209999 0.00643757 0.0196084 0.0206051 
0.00480092 0.0182052 0.0205 0.00425542 0.0196749 0.020501 0.000803105 0.0191918 0.0204998 
0.00199997 0.0153221 0.0219998 0.0078953 0.016093 0.0209751 0.00692772 0.0173542 0.020504 
0.00145946 0.0201891 0.0205 0.00534411 0.0201507 0.0205 0.000499958 0.0197685 0.0212581 
0.00762923 0.0201998 0.0207533 0.000547452 0.0206357 0.0217542 0.0122249 0.0141075 0.0216599 
0.0132338 0.0176888 0.0205 0.0103961 0.0192118 0.0220467 0.0121397 0.0147352 0.0205873 
0.0141486 0.0172408 0.0205054 0.0103988 0.0157426 0.02075 0.0155607 0.0179768 0.0210528 
0.0124929 0.0170121 0.0205 0.0156685 0.0163439 0.0213989 0.0151972 0.0166041 0.0205166 
0.0111757 0.0168079 0.0207072 0.0135627 0.0192855 0.0212499 0.0138906 0.0154247 0.0214979 
0.0161021 0.016067 0.0205121 0.0164674 0.0197839 0.0205 0.016625 0.0169263 0.0205393 
0.0178191 0.0185987 0.0214116 0.016768 0.0207498 0.0205002 0.0231191 0.0148554 0.0205 
0.0218757 0.0149517 0.0208578 0.0167324 0.0152814 0.0206632 0.0182881 0.0162514 0.0215103 
0.0181828 0.0204621 0.0207511 0.0234549 0.015875 0.0206689 0.0233854 0.0196672 0.0205 
0.0226685 0.0206123 0.0212342 0.0187205 0.0208288 0.0218181 0.0221811 0.0189687 0.0223988 
0.00166246 0.0243226 0.0207024 0.00100169 0.0219875 0.0209999 0.00401761 0.023134 0.0205 
0.000755111 0.0251866 0.02075 0.000526035 0.0277429 0.0205 0.00424728 0.0213098 0.0212504 
0.000957582 0.0244431 0.0220967 0.00638258 0.0210874 0.02075 0.00212944 0.0261636 0.0218498 
0.00590952 0.0231867 0.0213392 0.00788097 0.0274859 0.0205 0.00253572 0.0221987 0.021819 
0.00765637 0.0247539 0.0209999 0.0141667 0.0270628 0.0205 0.0132793 0.0258599 0.0205 
0.00896521 0.022523 0.0214999 0.0146231 0.021682 0.0213005 0.0155604 0.0229268 0.0205 
0.0154529 0.0272951 0.0205 0.0121955 0.0273198 0.0223822 0.0204128 0.0256243 0.0204992 
0.0167101 0.0219933 0.0207565 0.017326 0.0230672 0.0205 0.0207423 0.0217665 0.0207507 
0.0165991 0.0211047 0.0217727 0.0218239 0.0273359 0.0214638 0.0220245 0.0220653 0.0205 
0.0197545 0.0277868 0.0218254 0.0234184 0.0281238 0.022388 0.020836 0.0233725 0.0208516 
0.0162571 0.0265314 0.0215147 0.0178504 0.0217685 0.0217462 0.0163226 0.0220415 0.0221319 
0.0197 0.0212635 0.0219706 0.00231579 0.0292501 0.0217552 0.00263551 0.0339313 0.0219972 
0.000652191 0.0307059 0.0205469 0.00401412 0.0308146 0.0207558 0.00119544 0.031948 0.0207499 
0.00479797 0.0327172 0.02075 0.00605413 0.0331282 0.0205 0.00597908 0.0313152 0.021001 
0.000550449 0.0349887 0.0205 0.00646459 0.0299647 0.0205067 0.0039063 0.0311488 0.0222455 
0.00964938 0.0322118 0.0205 0.013588 0.0301278 0.0205394 0.00896575 0.0343151 0.0217228 
0.0127339 0.0337817 0.0205 0.00846415 0.0290955 0.0216263 0.010816 0.0331053 0.0205 
0.011768 0.0295524 0.022059 0.0112479 0.034679 0.022274 0.00838683 0.0337005 0.0211615 
0.0139162 0.0311196 0.0222288 0.0172284 0.0343658 0.020754 0.0198308 0.0284238 0.02075 
0.016908 0.0328953 0.0205398 0.0233297 0.0305492 0.0207781 0.0221205 0.0312113 0.0222996 
0.0185542 0.0286814 0.0205994 0.0209759 0.0335331 0.021489 0.0191533 0.0307393 0.0222159 
0.0185569 0.034477 0.0209317 0.0176104 0.0330868 0.0221698 0.00539298 0.0364879 0.0217499 
0.00311744 0.039165 0.0207581 0.0043035 0.0395046 0.0205042 0.00191336 0.0398268 0.0205088 
0.00263894 0.0414373 0.0209999 0.000746594 0.0368918 0.0205 0.00302884 0.0363553 0.0207527 
0.000527309 0.0393746 0.0205 0.000833358 0.040771 0.02075 0.00385922 0.0404005 0.0205 
0.00547595 0.0391539 0.0207633 0.00439181 0.0416298 0.02075 0.00523331 0.0407976 0.0213147 
0.00815505 0.0362331 0.0209242 0.00806064 0.0416652 0.0207513 0.0119478 0.0425151 0.0204999 
0.0137987 0.0398641 0.0206563 0.0120501 0.0390301 0.0205 0.0131595 0.0385055 0.0205 
0.00970254 0.0374521 0.0209999 0.0120718 0.0377782 0.0207774 0.00822936 0.0374849 0.0205207 
0.0120393 0.0401465 0.0205669 0.0123661 0.0396737 0.0218089 0.00873336 0.0424525 0.0214722 
0.0133566 0.0355554 0.0212535 0.00849575 0.0393245 0.0223363 0.0143076 0.0411939 0.0213254 
0.0158227 0.0372021 0.0205465 0.0167925 0.0389527 0.0205 0.0177575 0.0392297 0.0205 
0.0234928 0.0389952 0.0205 0.0224809 0.04041 0.0214999 0.0230925 0.0357653 0.0205 
0.019207 0.0373981 0.0218064 0.0226984 0.0376633 0.0220589 0.0234681 0.0424371 0.0205717 
0.0167766 0.0373146 0.021949 0.00130276 0.0427759 0.0223208 0.0031775 0.0432525 0.0205 
0.00151122 0.0456092 0.0222445 0.00276742 0.0449509 0.0205 0.0046194 0.0446476 0.0217481 
0.000999991 0.0487288 0.0209999 0.00412163 0.0464527 0.0205001 0.00501346 0.0478447 0.02075 
0.00595553 0.0466088 0.02075 0.00764088 0.0471568 0.020771 0.00681103 0.0484123 0.0207499 
0.00609067 0.0485537 0.0220576 0.00701268 0.0467337 0.0221883 0.010546 0.0447788 0.0220002 
0.0089926 0.0484591 0.02075 0.00932266 0.0464589 0.0205309 0.0113919 0.0466715 0.0205 
0.0112408 0.049335 0.0217492 0.0102599 0.0472559 0.0207503 0.0147822 0.046766 0.022249 
0.0114408 0.0470925 0.021666 0.00801963 0.0481848 0.0215864 0.0166936 0.0434261 0.0214999 
0.0168963 0.0472442 0.0205 0.0230049 0.0467505 0.0207671 0.0221912 0.0487267 0.0214999 
0.0180856 0.0485495 0.0212499 0.0232893 0.0450035 0.0205 0.0161686 0.0485765 0.0205 
0.019889 0.0489159 0.0205359 0.0199439 0.0430692 0.0215907 0.0179738 0.0455953 0.0211701 
0.0166354 0.0495885 0.0212771 0.000536469 0.0508428 0.0215007 0.000556737 0.0510372 0.0205072 
0.000963335 0.0519649 0.0205 0.0031896 0.0511092 0.02225 0.000508911 0.0528822 0.0205 
0.000703254 0.0539041 0.0206968 0.00100802 0.0555728 0.0209999 0.00285116 0.0547438 0.0209999 
0.00767169 0.0503513 0.0214999 0.00573323 0.0504141 0.0205002 0.00565368 0.054197 0.0209326 
0.00624606 0.0535049 0.0205016 0.00417439 0.055436 0.0205264 0.0149914 0.0498283 0.0209999 
0.00850407 0.0520114 0.0207408 0.00950134 0.0522163 0.0205024 0.0128025 0.0537621 0.0205026 
0.0105552 0.0544061 0.0214989 0.0116838 0.0562094 0.02075 0.0109012 0.0519624 0.021001 
0.0130399 0.0523009 0.0210009 0.00888283 0.0560721 0.0205432 0.0134096 0.0500584 0.0217 
0.0104986 0.0565857 0.0206148 0.0161616 0.0559128 0.0205038 0.0165983 0.055299 0.0212735 
0.0181774 0.0509249 0.0205 0.0218076 0.0508047 0.0205 0.0234722 0.0525391 0.0205 
[...]
POINT_DATA 1046
FIELD FieldData 7
id 1 1046 int
324 291 561 368 784 32 153 241 815 
448 228 300 442 816 710 527 490 199 
395 474 282 590 176 364 289 362 370 
783 51 233 217 636 89 171 870 549 
126 307 676 581 209 730 764 178 161 
159 204 219 108 333 142 200 340 452 
518 185 61 66 31 123 192 273 113 
544 588 274 360 64 380 75 256 154 
98 121 427 13 390 879 137 722 35 
275 46 80 556 342 287 714 865 756 
318 891 686 311 571 975 189 190 319 
57 143 6 293 735 308 49 146 109 
10 578 139 90 71 659 967 130 41 
231 652 44 439 174 737 713 646 820 
323 872 611 70 508 881 695 550 569 
110 62 252 43 709 260 772 741 450 
59 118 188 800 345 592 591 465 78 
330 697 350 719 272 628 42 747 1021 
896 678 482 12 162 529 700 1 600 
269 624 1004 54 152 780 221 198 717 
353 1011 512 582 400 566 523 557 238 
862 909 947 144 726 787 813 36 249 
259 534 522 672 348 831 535 952 337 
505 261 844 886 904 138 919 925 980 
861 640 698 609 384 900 982 990 1007 
985 1032 60 451 433 386 423 366 680 
519 579 668 247 814 733 91 347 405 
328 309 514 641 626 615 242 584 570 
471 949 1018 1019 268 394 326 650 304 
959 848 993 996 543 855 145 3 402 
122 354 265 712 495 424 788 682 453 
496 40 335 367 533 403 371 674 305 
410 485 168 499 804 133 769 935 970 
976 866 525 567 487 357 331 378 94 
705 230 361 771 899 467 773 88 711 
750 11 903 921 147 977 923 653 8 
776 702 415 431 573 73 112 470 48 
258 785 661 306 863 24 421 446 244 
379 165 381 264 105 7 694 619 667 
894 634 601 373 344 81 414 493 703 
778 760 1010 580 445 26 222 186 455 
129 67 45 179 84 271 313 38 477 
226 332 140 263 86 76 299 243 745 
651 926 532 558 720 314 187 696 736 
103 325 102 779 790 964 411 469 255 
157 104 355 18 456 478 225 39 117 
679 645 14 656 541 589 250 629 167 
351 20 210 149 69 565 560 22 744 
644 132 513 56 215 53 363 284 295 
443 29 184 101 197 422 473 182 302 
288 87 125 79 195 435 173 277 206 
563 605 664 407 393 82 464 498 239 
398 235 408 404 376 257 134 418 358 
52 141 163 9 329 93 481 234 655 
85 253 312 606 458 746 317 391 100 
940 684 596 388 466 151 28 599 320 
509 156 392 175 515 997 155 858 501 
942 763 598 148 25 220 170 34 507 
524 16 15 572 663 845 97 864 868 
895 774 369 954 613 1022 577 459 160 
17 92 202 136 322 2 281 5 604 
290 106 211 724 47 115 365 372 334 
77 631 841 798 486 447 208 237 488 
625 463 842 503 887 938 941 587 548 
583 406 472 494 998 1001 286 850 810 
893 958 979 1028 279 693 213 164 30 
723 542 33 419 432 538 172 725 585 
794 826 853 910 648 801 983 1012 19 
401 436 399 296 888 911 943 633 731 
823 972 824 836 742 1029 617 673 657 
715 734 786 833 212 890 627 968 974 
838 343 662 874 839 677 691 932 789 
120 758 812 837 898 536 944 956 639 
594 770 989 425 180 576 688 223 245 
782 476 748 647 832 315 483 285 521 
934 701 685 718 915 946 971 978 675 
929 1024 928 1035 908 492 623 759 916 
957 1020 338 430 479 412 638 409 749 
597 877 457 897 196 99 504 506 375 
752 984 991 1000 1036 1017 500 374 889 
876 902 937 961 966 1015 1016 1026 762 
554 236 316 462 545 765 809 775 945 
669 950 802 835 883 901 912 924 960 
969 986 1003 973 1025 1033 917 553 939 
847 856 878 892 927 962 963 517 981 
992 738 608 740 607 551 382 603 620 
822 704 537 807 852 920 621 754 987 
1030 799 811 441 885 930 602 999 933 
1023 875 416 739 426 670 124 687 526 
74 531 797 520 859 880 562 994 55 
397 428 547 37 489 766 444 95 665 
510 637 193 781 194 437 767 528 791 
349 922 267 116 278 792 729 658 821 
654 867 907 936 955 965 727 988 396 
777 931 706 341 828 884 346 327 303 
649 671 689 690 728 753 803 808 829 
846 857 913 1005 1009 502 1031 854 276 
251 475 681 840 614 218 708 356 806 
555 948 1034 1027 692 454 201 540 574 
595 618 632 352 593 716 834 860 721 
227 768 491 438 413 642 181 301 564 
150 707 793 851 882 914 1008 254 270 
417 96 216 660 795 796 843 849 906 
951 953 1014 383 830 612 817 511 818 
699 827 995 191 461 530 484 610 480 
643 586 616 575 321 131 871 873 905 
377 869 183 205 819 232 761 107 732 
757 4 229 203 50 283 468 539 559 
568 128 666 119 635 207 114 1002 630 
683 434 127 497 359 72 387 546 214 
262 622 420 292 23 298 805 825 516 
918 1006 1013 158 440 65 552 248 83 
63 743 68 755 266 135 385 169 246 
336 339 224 280 429 449 297 111 58 
177 294 310 240 389 21 27 166 460 
751 1037 1038 1039 1040 1041 1042 1043 1044 
1045 1046 
type 1 1046 int
1 1 1 1 1 1 1 1 1 
1 1 1 1 1 1 1 1 1 
1 1 1 1 1 1 1 1 1 
1 1 1 1 1 1 1 1 1 
1 1 1 1 1 1 1 1 1 
1 1 1 1 1 1 1 1 1 
1 1 1 1 1 1 1 1 1 
1 1 1 1 1 1 1 1 1 
1 1 1 1 1 1 1 1 1 
1 1 1 1 1 1 1 1 1 
1 1 1 1 1 1 1 1 1 
1 1 1 1 1 1 1 1 1 
1 1 1 1 1 1 1 1 1 
1 1 1 1 1 1 1 1 1 
1 1 1 1 1 1 1 1 1 
1 1 1 1 1 1 1 1 1 
1 1 1 1 1 1 1 1 1 
1 1 1 1 1 1 1 1 1 
1 1 1 1 1 1 1 1 1 
1 1 1 1 1 1 1 1 1 
1 1 1 1 1 1 1 1 1 
1 1 1 1 1 1 1 1 1 
1 1 1 1 1 1 1 1 1 
1 1 1 1 1 1 1 1 1 
1 1 1 1 1 1 1 1 1 
1 1 1 1 1 1 1 1 1 
1 1 1 1 1 1 1 1 1 
1 1 1 1 1 1 1 1 1 
1 1 1 1 1 1 1 1 1 
1 1 1 1 1 1 1 1 1 
1 1 1 1 1 1 1 1 1 
1 1 1 1 1 1 1 1 1 
1 1 1 1 1 1 1 1 1 
1 1 1 1 1 1 1 1 1 
1 1 1 1 1 1 1 1 1 
1 1 1 1 1 1 1 1 1 
1 1 1 1 1 1 1 1 1 
1 1 1 1 1 1 1 1 1 
1 1 1 1 1 1 1 1 1 
1 1 1 1 1 1 1 1 1 
1 1 1 1 1 1 1 1 1 
1 1 1 1 1 1 1 1 1 
1 1 1 1 1 1 1 1 1 
1 1 1 1 1 1 1 1 1 
1 1 1 1 1 1 1 1 1 
1 1 1 1 1 1 1 1 1 
1 1 1 1 1 1 1 1 1 
1 1 1 1 1 1 1 1 1 
1 1 1 1 1 1 1 1 1 
1 1 1 1 1 1 1 1 1 
1 1 1 1 1 1 1 1 1 
1 1 1 1 1 1 1 1 1 
1 1 1 1 1 1 1 1 1 
1 1 1 1 1 1 1 1 1 
1 1 1 1 1 1 1 1 1 
1 1 1 1 1 1 1 1 1 
1 1 1 1 1 1 1 1 1 
1 1 1 1 1 1 1 1 1 
1 1 1 1 1 1 1 1 1 
1 1 1 1 1 1 1 1 1 
1 1 1 1 1 1 1 1 1 
1 1 1 1 1 1 1 1 1 
1 1 1 1 1 1 1 1 1 
1 1 1 1 1 1 1 1 1 
1 1 1 1 1 1 1 1 1 
1 1 1 1 1 1 1 1 1 
1 1 1 1 1 1 1 1 1 
1 1 1 1 1 1 1 1 1 
1 1 1 1 1 1 1 1 1 
1 1 1 1 1 1 1 1 1 
1 1 1 1 1 1 1 1 1 
1 1 1 1 1 1 1 1 1 
1 1 1 1 1 1 1 1 1 
1 1 1 1 1 1 1 1 1 
1 1 1 1 1 1 1 1 1 
1 1 1 1 1 1 1 1 1 
1 1 1 1 1 1 1 1 1 
1 1 1 1 1 1 1 1 1 
1 1 1 1 1 1 1 1 1 
1 1 1 1 1 1 1 1 1 
1 1 1 1 1 1 1 1 1 
1 1 1 1 1 1 1 1 1 
1 1 1 1 1 1 1 1 1 
1 1 1 1 1 1 1 1 1 
1 1 1 1 1 1 1 1 1 
1 1 1 1 1 1 1 1 1 
1 1 1 1 1 1 1 1 1 
1 1 1 1 1 1 1 1 1 
1 1 1 1 1 1 1 1 1 
1 1 1 1 1 1 1 1 1 
1 1 1 1 1 1 1 1 1 
1 1 1 1 1 1 1 1 1 
1 1 1 1 1 1 1 1 1 
1 1 1 1 1 1 1 1 1 
1 1 1 1 1 1 1 1 1 
1 1 1 1 1 1 1 1 1 
1 1 1 1 1 1 1 1 1 
1 1 1 1 1 1 1 1 1 
1 1 1 1 1 1 1 1 1 
1 1 1 1 1 1 1 1 1 
1 1 1 1 1 1 1 1 1 
1 1 1 1 1 1 1 1 1 
1 1 1 1 1 1 1 1 1 
1 1 1 1 1 1 1 1 1 
1 1 1 1 1 1 1 1 1 
1 1 1 1 1 1 1 1 1 
1 1 1 1 1 1 1 1 1 
1 1 1 1 1 1 1 1 1 
1 1 1 1 1 1 1 1 1 
1 1 1 1 1 1 1 1 1 
1 1 1 1 1 1 1 1 1 
1 1 1 1 1 1 1 1 1 
1 1 1 1 1 1 1 1 1 
1 1 1 1 1 1 1 1 1 
1 1 1 1 1 1 1 1 1 
1 1 1 1 1 1 1 1 1 
1 1 
i 3 1046 int
0 0 0 0 0 0 0 0 0 
0 0 0 0 0 0 0 0 0 
0 0 0 0 0 0 0 0 0 
0 0 0 0 0 0 0 0 0 
0 0 0 0 0 0 0 0 0 
0 0 0 0 0 0 0 0 0 
0 0 0 0 0 0 0 0 0 
0 0 0 0 0 0 0 0 0 
0 0 0 0 0 0 0 0 0 
0 0 0 0 0 0 0 0 0 
0 0 0 0 0 0 0 0 0 
0 0 0 0 0 0 0 0 0 
0 0 0 0 0 0 0 0 0 
0 0 0 0 0 0 0 0 0 
0 0 0 0 0 0 0 0 0 
0 0 0 0 0 0 0 0 0 
0 0 0 0 0 0 0 0 0 
0 0 0 0 0 0 0 0 0 
0 0 0 0 0 0 0 0 0 
0 0 0 0 0 0 0 0 0 
0 0 0 0 0 0 0 0 0 
0 0 0 0 0 0 0 0 0 
0 0 0 0 0 0 0 0 0 
0 0 0 0 0 0 0 0 0 
0 0 0 0 0 0 0 0 0 
0 0 0 0 0 0 0 0 0 
0 0 0 0 0 0 0 0 0 
0 0 0 0 0 0 0 0 0 
0 0 0 0 0 0 0 0 0 
0 0 0 0 0 0 0 0 0 
0 0 0 0 0 0 0 0 0 
0 0 0 0 0 0 0 0 0 
0 0 0 0 0 0 0 0 0 
0 0 0 0 0 0 0 0 0 
0 0 0 0 0 0 0 0 0 
0 0 0 0 0 0 0 0 0 
0 0 0 0 0 0 0 0 0 
0 0 0 0 0 0 0 0 0 
0 0 0 0 0 0 0 0 0 
0 0 0 0 0 0 0 0 0 
0 0 0 0 0 0 0 0 0 
0 0 0 0 0 0 0 0 0 
0 0 0 0 0 0 0 0 0 
0 0 0 0 0 0 0 0 0 
0 0 0 0 0 0 0 0 0 
0 0 0 0 0 0 0 0 0 
0 0 0 0 0 0 0 0 0 
0 0 0 0 0 0 0 0 0 
0 0 0 0 0 0 0 0 0 
0 0 0 0 0 0 0 0 0 
0 0 0 0 0 0 0 0 0 
0 0 0 0 0 0 0 0 0 
0 0 0 0 0 0 0 0 0 
0 0 0 0 0 0 0 0 0 
0 0 0 0 0 0 0 0 0 
0 0 0 0 0 0 0 0 0 
0 0 0 0 0 0 0 0 0 
0 0 0 0 0 0 0 0 0 
0 0 0 0 0 0 0 0 0 
0 0 0 0 0 0 0 0 0 
0 0 0 0 0 0 0 0 0 
0 0 0 0 0 0 0 0 0 
0 0 0 0 0 0 0 0 0 
0 0 0 0 0 0 0 0 0 
0 0 0 0 0 0 0 0 0 
0 0 0 0 0 0 0 0 0 
0 0 0 0 0 0 0 0 0 
0 0 0 0 0 0 0 0 0 
0 0 0 0 0 0 0 0 0 
0 0 0 0 0 0 0 0 0 
0 0 0 0 0 0 0 0 0 
0 0 0 0 0 0 0 0 0 
0 0 0 0 0 0 0 0 0 
0 0 0 0 0 0 0 0 0 
0 0 0 0 0 0 0 0 0 
0 0 0 0 0 0 0 0 0 
0 0 0 0 0 0 0 0 0 
0 0 0 0 0 0 0 0 0 
0 0 0 0 0 0 0 0 0 
0 0 0 0 0 0 0 0 0 
0 0 0 0 0 0 0 0 0 
0 0 0 0 0 0 0 0 0 
0 0 0 0 0 0 0 0 0 
0 0 0 0 0 0 0 0 0 
0 0 0 0 0 0 0 0 0 
0 0 0 0 0 0 0 0 0 
0 0 0 0 0 0 0 0 0 
0 0 0 0 0 0 0 0 0 
0 0 0 0 0 0 0 0 0 
0 0 0 0 0 0 0 0 0 
0 0 0 0 0 0 0 0 0 
0 0 0 0 0 0 0 0 0 
0 0 0 0 0 0 0 0 0 
0 0 0 0 0 0 0 0 0 
0 0 0 0 0 0 0 0 0 
0 0 0 0 0 0 0 0 0 
0 0 0 0 0 0 0 0 0 
0 0 0 0 0 0 0 0 0 
0 0 0 0 0 0 0 0 0 
0 0 0 0 0 0 0 0 0 
0 0 0 0 0 0 0 0 0 
0 0 0 0 0 0 0 0 0 
0 0 0 0 0 0 0 0 0 
0 0 0 0 0 0 0 0 0 
0 0 0 0 0 0 0 0 0 
0 0 0 0 0 0 0 0 0 
0 0 0 0 0 0 0 0 0 
0 0 0 0 0 0 0 0 0 
0 0 0 0 0 0 0 0 0 
0 0 0 0 0 0 0 0 0 
0 0 0 0 0 0 0 0 0 
0 0 0 0 0 0 0 0 0 
0 0 0 0 0 0 0 0 0 
0 0 0 0 0 0 0 0 0 
0 0 0 0 0 0 0 0 0 
0 0 0 0 0 0 0 0 0 
0 0 0 0 0 0 0 0 0 
0 0 0 0 0 0 0 0 0 
0 0 0 0 0 0 0 0 0 
0 0 0 0 0 0 0 0 0 
0 0 0 0 0 0 0 0 0 
0 0 0 0 0 0 0 0 0 
0 0 0 0 0 0 0 0 0 
0 0 0 0 0 0 0 0 0 
0 0 0 0 0 0 0 0 0 
0 0 0 0 0 0 0 0 0 
0 0 0 0 0 0 0 0 0 
0 0 0 0 0 0 0 0 0 
0 0 0 0 0 0 0 0 0 
0 0 0 0 0 0 0 0 0 
0 0 0 0 0 0 0 0 0 
0 0 0 0 0 0 0 0 0 
0 0 0 0 0 0 0 0 0 
0 0 0 0 0 0 0 0 0 
0 0 0 0 0 0 0 0 0 
0 0 0 0 0 0 0 0 0 
0 0 0 0 0 0 0 0 0 
0 0 0 0 0 0 0 0 0 
0 0 0 0 0 0 0 0 0 
0 0 0 0 0 0 0 0 0 
0 0 0 0 0 0 0 0 0 
0 0 0 0 0 0 0 0 0 
0 0 0 0 0 0 0 0 0 
0 0 0 0 0 0 0 0 0 
0 0 0 0 0 0 0 0 0 
0 0 0 0 0 0 0 0 0 
0 0 0 0 0 0 0 0 0 
0 0 0 0 0 0 0 0 0 
0 0 0 0 0 0 0 0 0 
0 0 0 0 0 0 0 0 0 
0 0 0 0 0 0 0 0 0 
0 0 0 0 0 0 0 0 0 
0 0 0 0 0 0 0 0 0 
0 0 0 0 0 0 0 0 0 
0 0 0 0 0 0 0 0 0 
0 0 0 0 0 0 0 0 0 
0 0 0 0 0 0 0 0 0 
0 0 0 0 0 0 0 0 0 
0 0 0 0 0 0 0 0 0 
0 0 0 0 0 0 0 0 0 
0 0 0 0 0 0 0 0 0 
0 0 0 0 0 0 0 0 0 
0 0 0 0 0 0 0 0 0 
0 0 0 0 0 0 0 0 0 
0 0 0 0 0 0 0 0 0 
0 0 0 0 0 0 0 0 0 
0 0 0 0 0 0 0 0 0 
0 0 0 0 0 0 0 0 0 
0 0 0 0 0 0 0 0 0 
0 0 0 0 0 0 0 0 0 
0 0 0 0 0 0 0 0 0 
0 0 0 0 0 0 0 0 0 
0 0 0 0 0 0 0 0 0 
0 0 0 0 0 0 0 0 0 
0 0 0 0 0 0 0 0 0 
0 0 0 0 0 0 0 0 0 
0 0 0 0 0 0 0 0 0 
0 0 0 0 0 0 0 0 0 
0 0 0 0 0 0 0 0 0 
0 0 0 0 0 0 0 0 0 
0 0 0 0 0 0 0 0 0 
0 0 0 0 0 0 0 0 0 
0 0 0 0 0 0 0 0 0 
0 0 0 0 0 0 0 0 0 
0 0 0 0 0 0 0 0 0 
0 0 0 0 0 0 0 0 0 
0 0 0 0 0 0 0 0 0 
0 0 0 0 0 0 0 0 0 
0 0 0 0 0 0 0 0 0 
0 0 0 0 0 0 0 0 0 
0 0 0 0 0 0 0 0 0 
0 0 0 0 0 0 0 0 0 
0 0 0 0 0 0 0 0 0 
0 0 0 0 0 0 0 0 0 
0 0 0 0 0 0 0 0 0 
0 0 0 0 0 0 0 0 0 
0 0 0 0 0 0 0 0 0 
0 0 0 0 0 0 0 0 0 
0 0 0 0 0 0 0 0 0 
0 0 0 0 0 0 0 0 0 
0 0 0 0 0 0 0 0 0 
0 0 0 0 0 0 0 0 0 
0 0 0 0 0 0 0 0 0 
0 0 0 0 0 0 0 0 0 
0 0 0 0 0 0 0 0 0 
0 0 0 0 0 0 0 0 0 
0 0 0 0 0 0 0 0 0 
0 0 0 0 0 0 0 0 0 
0 0 0 0 0 0 0 0 0 
0 0 0 0 0 0 0 0 0 
0 0 0 0 0 0 0 0 0 
0 0 0 0 0 0 0 0 0 
0 0 0 0 0 0 0 0 0 
0 0 0 0 0 0 0 0 0 
0 0 0 0 0 0 0 0 0 
0 0 0 0 0 0 0 0 0 
0 0 0 0 0 0 0 0 0 
0 0 0 0 0 0 0 0 0 
0 0 0 0 0 0 0 0 0 
0 0 0 0 0 0 0 0 0 
0 0 0 0 0 0 0 0 0 
0 0 0 0 0 0 0 0 0 
0 0 0 0 0 0 0 0 0 
0 0 0 0 0 0 0 0 0 
0 0 0 0 0 0 0 0 0 
0 0 0 0 0 0 0 0 0 
0 0 0 0 0 0 0 0 0 
0 0 0 0 0 0 0 0 0 
0 0 0 0 0 0 0 0 0 
0 0 0 0 0 0 0 0 0 
0 0 0 0 0 0 0 0 0 
0 0 0 0 0 0 0 0 0 
0 0 0 0 0 0 0 0 0 
0 0 0 0 0 0 0 0 0 
0 0 0 0 0 0 0 0 0 
0 0 0 0 0 0 0 0 0 
0 0 0 0 0 0 0 0 0 
0 0 0 0 0 0 0 0 0 
0 0 0 0 0 0 0 0 0 
0 0 0 0 0 0 0 0 0 
0 0 0 0 0 0 0 0 0 
0 0 0 0 0 0 0 0 0 
0 0 0 0 0 0 0 0 0 
0 0 0 0 0 0 0 0 0 
0 0 0 0 0 0 0 0 0 
0 0 0 0 0 0 0 0 0 
0 0 0 0 0 0 0 0 0 
0 0 0 0 0 0 0 0 0 
0 0 0 0 0 0 0 0 0 
0 0 0 0 0 0 0 0 0 
0 0 0 0 0 0 0 0 0 
0 0 0 0 0 0 0 0 0 
0 0 0 0 0 0 0 0 0 
0 0 0 0 0 0 0 0 0 
0 0 0 0 0 0 0 0 0 
0 0 0 0 0 0 0 0 0 
0 0 0 0 0 0 0 0 0 
0 0 0 0 0 0 0 0 0 
0 0 0 0 0 0 0 0 0 
0 0 0 0 0 0 0 0 0 
0 0 0 0 0 0 0 0 0 
0 0 0 0 0 0 0 0 0 
0 0 0 0 0 0 0 0 0 
0 0 0 0 0 0 0 0 0 
0 0 0 0 0 0 0 0 0 
0 0 0 0 0 0 0 0 0 
0 0 0 0 0 0 0 0 0 
0 0 0 0 0 0 0 0 0 
0 0 0 0 0 0 0 0 0 
0 0 0 0 0 0 0 0 0 
0 0 0 0 0 0 0 0 0 
0 0 0 0 0 0 0 0 0 
0 0 0 0 0 0 0 0 0 
0 0 0 0 0 0 0 0 0 
0 0 0 0 0 0 0 0 0 
0 0 0 0 0 0 0 0 0 
0 0 0 0 0 0 0 0 0 
0 0 0 0 0 0 0 0 0 
0 0 0 0 0 0 0 0 0 
0 0 0 0 0 0 0 0 0 
0 0 0 0 0 0 0 0 0 
0 0 0 0 0 0 0 0 0 
0 0 0 0 0 0 0 0 0 
0 0 0 0 0 0 0 0 0 
0 0 0 0 0 0 0 0 0 
0 0 0 0 0 0 0 0 0 
0 0 0 0 0 0 0 0 0 
0 0 0 0 0 0 0 0 0 
0 0 0 0 0 0 0 0 0 
0 0 0 0 0 0 0 0 0 
0 0 0 0 0 0 0 0 0 
0 0 0 0 0 0 0 0 0 
0 0 0 0 0 0 0 0 0 
0 0 0 0 0 0 0 0 0 
0 0 0 0 0 0 0 0 0 
0 0 0 0 0 0 0 0 0 
0 0 0 0 0 0 0 0 0 
0 0 0 0 0 0 0 0 0 
0 0 0 0 0 0 0 0 0 
0 0 0 0 0 0 0 0 0 
0 0 0 0 0 0 0 0 0 
0 0 0 0 0 0 0 0 0 
0 0 0 0 0 0 0 0 0 
0 0 0 0 0 0 0 0 0 
0 0 0 0 0 0 0 0 0 
0 0 0 0 0 0 0 0 0 
0 0 0 0 0 0 0 0 0 
0 0 0 0 0 0 0 0 0 
0 0 0 0 0 0 0 0 0 
0 0 0 0 0 0 0 0 0 
0 0 0 0 0 0 0 0 0 
0 0 0 0 0 0 0 0 0 
0 0 0 0 0 0 0 0 0 
0 0 0 0 0 0 0 0 0 
0 0 0 0 0 0 0 0 0 
0 0 0 0 0 0 0 0 0 
0 0 0 0 0 0 0 0 0 
0 0 0 0 0 0 0 0 0 
0 0 0 0 0 0 0 0 0 
0 0 0 0 0 0 0 0 0 
0 0 0 0 0 0 0 0 0 
0 0 0 0 0 0 0 0 0 
0 0 0 0 0 0 0 0 0 
0 0 0 0 0 0 0 0 0 
0 0 0 0 0 0 0 0 0 
0 0 0 0 0 0 0 0 0 
0 0 0 0 0 0 0 0 0 
0 0 0 0 0 0 0 0 0 
0 0 0 0 0 0 0 0 0 
0 0 0 0 0 0 0 0 0 
0 0 0 0 0 0 0 0 0 
0 0 0 0 0 0 0 0 0 
0 0 0 0 0 0 0 0 0 
0 0 0 0 0 0 0 0 0 
0 0 0 0 0 0 0 0 0 
0 0 0 0 0 0 0 0 0 
0 0 0 0 0 0 0 0 0 
0 0 0 0 0 0 0 0 0 
0 0 0 0 0 0 0 0 0 
0 0 0 0 0 0 0 0 0 
0 0 0 0 0 0 0 0 0 
0 0 0 0 0 0 0 0 0 
0 0 0 0 0 0 0 0 0 
0 0 0 0 0 0 0 0 0 
0 0 0 0 0 0 0 0 0 
0 0 0 0 0 0 0 0 0 
0 0 0 0 0 0 0 0 0 
0 0 0 0 0 0 0 0 0 
0 0 0 0 0 0 
v 3 1046 double
1.52677 -0.320307 0.000945817 0.377592 0.389841 6.40391e-07 0.718492 -1.17593 0.0954721 
0.443281 0.617262 3.24586e-11 1.0322 -0.575977 -0.000587845 -0.93429 -2.90432 -0.00020913 
0.384209 0.692859 0.901554 -1.16016 1.1499 0.0155172 -0.412641 -0.382514 -1.24555e-11 
0.386308 -1.91549 -3.17044e-11 0.126066 -0.111283 -2.71214e-11 0.00762555 -0.00226039 -0.568954 
0.038521 -1.40506 0.163534 0.183238 0.0724223 -2.38278 -1.82489 -0.0555455 0.00668528 
0.291142 -2.17679 -1.2568e-10 1.35305 -1.70405 -1.33519 -1.30236 -0.336649 0.00580774 
-0.925833 -1.12845 -0.354312 -0.592104 -0.00600507 0.00245088 -1.2513 -1.66869 -0.0566441 
1.06827 -1.08357 -2.98712e-11 -0.869959 0.0158944 -0.32125 -1.27538 0.0325248 0.356832 
-1.87233 -2.12029 0.0919537 0.455271 0.0991297 -0.279396 0.11078 0.0665191 0.00558273 
-0.691465 -0.0746956 -0.290712 -0.80511 -0.782583 -0.071852 0.670927 0.438026 -2.07201e-07 
0.450567 -0.909273 2.68679e-11 -1.28625 -0.847966 3.24586e-11 0.562002 -3.59871 0.758481 
-1.5891 -0.541181 -0.149143 -1.28936 -0.26349 -1.54643 0.0136847 0.219696 -0.0383456 
-1.48628 -1.29393 0.048836 -0.470227 -5.4711 0.319475 0.98154 -0.885534 -0.0800519 
-0.199176 -0.881076 0.650362 -1.1023 -1.35429 -1.03662e-05 -0.801635 -0.170034 0.0544006 
-0.747949 -2.07228 -0.918204 -0.586129 0.0191213 0.000651446 0.000434044 -0.00102822 -0.000752279 
-0.081948 -0.259968 -1.33721e-11 -0.00519627 -0.00414665 -4.206e-12 -0.140924 -0.207607 0.000308247 
-1.06497 0.335325 0.0196546 -0.0553084 -0.967332 -0.35516 0.0527734 -0.00217788 -0.00051727 
0.259684 0.111268 1.25073e-09 -0.104539 0.104268 6.3638e-05 -0.0825158 0.182018 1.50429e-11 
-0.487571 -0.00198963 -0.516993 -1.11275 -1.10571 0.00522548 -1.49254 0.400435 0.571314 
-1.72554 0.434852 4.73016e-08 -0.691164 0.0112269 -1.13461 0.00418613 -0.0115727 -4.01244e-05 
-2.37798 -0.754234 -0.00661695 -0.0118316 0.347872 -0.24055 0.192664 -1.87871 1.41263e-11 
-1.06792 -0.758469 -0.368598 -0.645826 0.347138 1.04598e-11 -0.1605 -1.29246 -1.24555e-11 
0.369454 -0.475364 2.60423e-11 -0.117283 -1.06989 -1.83103 -0.601548 -1.0015 -3.07878e-11 
0.113868 -1.40199 -0.00757565 0.0116276 -1.54086 -0.52545 0.507337 -0.131252 -0.134195 
0.00912026 -0.815564 -0.0007012 -0.0613636 -2.36557 -5.12261e-12 0.844229 0.0969969 2.97088e-11 
0.000753394 -0.692 -9.48553e-07 -0.688839 -0.508503 -1.84221 0 0 -1.01678 
0.0888584 -0.696413 9.50602e-07 0.0175742 -2.33183 -2.39593 0.545176 -1.10651 1.55269e-11 
1.18345 0.655233 -1.00934e-05 -1.49098 0.341999 -1.06063e-11 -0.112056 -0.159405 -9.82915e-06 
2.80187 0.903477 2.79626e-05 3.21659 0.0565744 -0.524825 1.39605 0.682464 1.21202e-07 
-1.00848 -2.39872 0.165751 1.58744 -0.850459 -2.98712e-11 2.55555 -1.11923 -1.16539 
-0.784293 -0.212274 0.169397 -2.42728 0.71553 1.50429e-11 1.31311 0.431665 -0.853607 
-1.64251 -0.904463 -0.196362 -1.1381 0.805582 -0.606602 2.70005 1.51888 0.756129 
-0.0910214 -1.77494 0.0365749 -1.88654 -1.50347 -2.76051e-11 -0.00662425 -1.05093 0.0114585 
-1.62883 -0.183933 0.0453714 0.0643066 -1.35614 -0.0816541 0.532091 -0.300765 -0.68818 
0.0176525 -0.250154 -0.000246658 0.230092 -2.54887 0.581389 -0.29842 -0.945265 0.0283789 
-0.995068 -1.35812 9.54322e-12 -0.120325 -0.953148 1.13742e-11 -1.65729 -1.08584 -0.965669 
-2.37532 -1.23703 -0.25745 -0.00226694 -1.18857 -0.0417348 -1.13094 -2.84407 0.028902 
-0.288625 -1.19746 -0.647492 -0.807903 -1.0705 0.0639903 -1.53238 -0.4675 -0.539087 
-0.0579415 0.249344 -0.27887 0.628216 -0.0658966 -1.55668 0.00692325 -1.55538 0.0259478 
-0.177025 -1.18819 8.62661e-12 -1.46151 -0.529204 -1.50997 0.529256 -0.342329 3.64035e-07 
0.298185 -0.112522 0.0142251 -0.33721 -0.365702 2.87738e-11 -1.57671 -2.47499 -0.450671 
-1.90363 -2.36235 2.78755e-11 -1.61964 -3.27181 -0.0746666 0.567305 -2.88871 0.0155598 
-6.62302e-06 -0.467519 2.89464e-07 0.184216 -2.17347 -0.306047 0.680084 -0.147101 0.144951 
1.44127 -2.22619 3.91589e-08 -1.23704 -2.62898 -5.22477e-08 -0.0652477 -3.34592 0.197704 
-0.793783 -3.05643 -0.308581 -1.27325 -2.51472 -1.45155 1.6221 -1.41856 0.755774 
-1.23699 -3.42656 -1.54457e-11 -0.88442 -2.32137 0.133737 0.718245 0.843219 0.330323 
1.02106 0.791463 0.114557 0 0 -2.56437e-11 -0.0814912 0.153893 -0.228075 
-1.63451 -3.06009 6.05289e-09 0.905615 -3.20594 1.17756 0.906596 -1.04584 0.508228 
0.796566 -2.1507 -2.58972 -0.782359 -3.21262 6.1033e-06 -0.333237 -1.53405 0.126249 
1.64272 -2.37743 0.359263 1.47072 1.56001 5.07383e-06 0.680907 -1.55197 0.574124 
5.062 -2.03635 -2.37873 -0.307995 -0.495576 0.0979487 -0.379887 -1.06839 -1.06223e-11 
-0.763176 -1.30249 -0.331731 2.25191 -3.01548 -1.35403 1.85608 -1.94636 -0.462118 
0.599983 0.170179 -0.418941 -0.085827 -1.00781 0.0492592 -0.17528 -3.09004 -7.87246e-12 
-0.638398 -3.46307 -0.00359048 3.89747 -1.82826 -1.16537 -0.002878 -0.0524991 -0.238367 
-0.32383 0.418204 0.0242705 0.023709 -1.17885 -1.4082e-05 -3.76642 -1.39396 -2.62048e-11 
0.0315466 0.869761 -9.67733e-09 0.042609 2.76436 3.33752e-11 -1.72361 -2.8187 -0.016141 
0.369282 0.154292 -0.133323 -0.861393 -3.67669 -3.80823e-05 1.29902 -0.526622 -0.557872 
-1.91246 -2.66677 0.109843 0.718077 -2.75315 1.77925e-11 -0.412331 0.0653067 0.613392 
-3.26671 -2.80572 1.64274e-11 -0.21024 -0.564007 2.42091e-11 -0.384092 -0.833657 -2.8038e-11 
-1.5865 -2.45208 -5.32077e-10 -0.487242 -2.84887 -0.305895 -0.985009 -2.68272 -1.42888e-11 
-0.835336 -3.14637 -1.33721e-11 1.90987 5.83989 1.90274 1.58619 0.11972 -0.0424813 
-0.0298319 -0.177787 0.0977728 0.411484 -1.42176 -2.34549e-11 0.875282 -0.396787 0.0416506 
0.646856 -3.4254 -0.760182 -0.136391 -0.366887 0.189028 1.46378 -1.03187 1.64053e-07 
-0.0380458 -0.317652 -0.289476 -0.159302 1.11507 0.654609 0 0 -0.647681 
-0.843329 -1.76902 -1.90155 2.20097 -3.18515 -1.8055 0.577624 -3.29145 -0.588857 
1.25442 -1.66095 -2.22973 0.724463 -0.481547 -0.00941671 0.516511 0.895888 -0.372635 
0.351456 0.735653 -0.103921 0.231033 0.409857 0.0277293 -0.0352595 0.796105 0.0335312 
0.382487 -0.211815 -6.0427e-10 0.177889 -0.0509463 6.79338e-12 -1.94593 -1.65763 -0.0221529 
0.223185 -0.405979 1.83991e-11 0.114192 -1.02906 -0.837051 -0.00290263 -0.244252 -3.07765 
-0.169902 -1.01766 3.77077e-13 1.22281 0.00817226 -0.102972 0.133699 0.141947 -1.04565 
0 0 -1.42888e-11 0 0 -0.89195 0.159202 -2.90119 1.13765e-11 
-0.076864 -0.0401893 -0.686183 -3.02638 -1.21869 0.172624 -0.133699 -0.141947 -0.648735 
0 0 -1.15878 -3.86473 0.923095 0.115248 0.00576681 0.0481482 -3.37043e-09 
-0.613546 0.00974717 -0.30593 -0.563264 1.56967 0.770817 -2.35396 1.56579 0.0269249 
0 0 -0.422296 1.24185 0.453418 -1.4685 44.0425 8.7908 37.6176 
0.682839 6.29734 -7.38192 0 0 -0.0904727 0.647289 1.14996 -0.000309588 
-2.02962 0.815188 0.0567033 -2.12258 1.27192 0.0191262 0.0809994 0.0665149 -0.171049 
-2.00597 1.56299 -5.59044e-10 0.240816 -0.429197 -4.75043e-10 0.168739 1.50302 0.017981 