# vtk DataFile Version 4.0
Generated by LIGGGHTS
ASCII
DATASET POLYDATA
POINTS 172 float
0.0152366 0.0046978 0.0213888 0.0123606 0.00392181 0.0215353 0.0103628 0.000989221 0.0209083 
0.016566 0.00296283 0.0224742 0.0224536 0.00691144 0.0214212 0.00369864 0.00986374 0.0220849 
0.0110927 0.00939935 0.0219026 0.00716734 0.0180671 0.0215551 0.0174987 0.0152407 0.0207654 
0.0208533 0.0209549 0.0208518 0.0179528 0.0145878 0.0218033 0.0171334 0.0207273 0.0216837 
0.0194873 0.0186146 0.0220224 0.00213807 0.021503 0.0218093 0.0021724 0.0245705 0.021666 
0.00370174 0.0230763 0.0219046 0.00660634 0.0283254 0.0223358 0.0107118 0.027461 0.0206985 
0.00226392 0.0313546 0.0218513 0.0127552 0.0286822 0.0215917 0.0185771 0.0322748 0.0221737 
0.0171463 0.0316619 0.0219872 0.00673508 0.0407756 0.0205 0.00753854 0.0356293 0.022427 
0.00388625 0.0394165 0.0212872 0.0106405 0.0362982 0.0219779 0.0069108 0.0450746 0.0222696 
0.00239125 0.0443921 0.0220125 0.0142406 0.0452546 0.0210875 0.0109563 0.0477789 0.0206803 
0.0120601 0.0457098 0.0216656 0.0139593 0.0427677 0.0220829 0.010872 0.0459041 0.0209983 
0.0228242 0.0471896 0.0207925 0.00273151 0.0500627 0.0221151 0.010885 0.0547262 0.0208472 
0.00911569 0.0498914 0.0218651 0.0187446 0.0543326 0.0214986 0.00735197 0.0619327 0.0222502 
0.0017275 0.0586765 0.0216058 0.011018 0.0619206 0.0216906 0.019186 0.0626811 0.0208271 
0.022202 0.0659303 0.0215388 0.0217793 0.0693696 0.0222018 0.00570895 0.0727845 0.0210741 
0.000773865 0.0726179 0.0218101 0.00962452 0.0757185 0.0223946 0.014938 0.0742187 0.0213855 
0.00638596 0.00258125 0.0266753 0.0057006 0.00665971 0.0257309 0.00291171 0.00366576 0.0252579 
0.00835799 0.00217101 0.0247501 0.0121218 0.00516203 0.0246113 0.0192392 0.00260883 0.0274086 
0.0168888 0.00608645 0.0228176 0.00538796 0.0112943 0.0236925 0.00636038 0.00940985 0.0234459 
0.00457828 0.0104321 0.0251098 0.00961613 0.00739795 0.0287238 0.00809967 0.0100365 0.0233622 
0.0120923 0.00939195 0.0241324 0.00889221 0.0107106 0.0250759 0.0155223 0.00827035 0.0242586 
0.0118503 0.0140895 0.0240221 0.0197577 0.0108328 0.0265046 0.0225165 0.0111093 0.0245136 
0.0218653 0.00796601 0.0227659 0.0173129 0.00746723 0.0259326 0.0211486 0.0128995 0.0231195 
0.00338886 0.0146385 0.0281323 0.00674185 0.0203028 0.0242804 0.00101562 0.0177039 0.0242954 
0.00256071 0.0192248 0.0226258 0.00520097 0.0153234 0.0246891 0.00553092 0.0202699 0.0238228 
0.0107001 0.0157795 0.0293298 0.0128693 0.0196996 0.0245165 0.0153069 0.0182439 0.0243507 
0.0104673 0.0150478 0.022547 0.00967909 0.0147152 0.0245344 0.0160953 0.0164001 0.0234976 
0.0213929 0.0207355 0.0257085 0.00263084 0.0274981 0.028677 0.00535531 0.0217654 0.0250596 
0.00484276 0.0266237 0.0242702 0.00780001 0.0219443 0.0224869 0.00682053 0.0280341 0.0236835 
0.00355324 0.0239355 0.0229151 0.015344 0.0235471 0.0244997 0.010519 0.0282996 0.0248116 
0.0104047 0.0243118 0.0233966 0.020055 0.0252602 0.0254033 0.0196408 0.0247071 0.0244774 
0.00467146 0.0297323 0.023099 0.00702761 0.0294171 0.0237568 0.0122541 0.0340019 0.0230208 
0.0125896 0.0298589 0.0248184 0.0148158 0.0298436 0.0230871 0.00994502 0.0323688 0.0238436 
0.0101179 0.0349502 0.0251827 0.0177517 0.0289481 0.0233268 0.0186072 0.0349946 0.0226174 
0.0195767 0.031928 0.0239341 0.00772468 0.0411035 0.0241798 0.00118311 0.0406987 0.0231471 
0.0108662 0.0395131 0.0266481 0.0120757 0.0419702 0.0229691 0.00827588 0.0414709 0.0254164 
0.0127554 0.0388256 0.0254404 0.0137664 0.0413489 0.0237486 0.0172235 0.0388952 0.0253387 
0.0216446 0.0397892 0.0232441 0.0218573 0.0393643 0.0259184 0.00700223 0.0471283 0.0253766 
0.00688081 0.0447654 0.0247887 0.0193956 0.0467196 0.0251533 0.0176621 0.0481583 0.0252949 
0.000501692 0.0520233 0.0226722 0.00190876 0.0534666 0.0239458 0.00683672 0.0542753 0.0254442 
0.00666109 0.0548868 0.0241114 0.00353231 0.0502703 0.0257635 0.00652968 0.0530997 0.0236987 
0.0101568 0.0545473 0.0230948 0.0140654 0.0546149 0.0262185 0.0146805 0.0498471 0.0244454 
0.0143536 0.0549088 0.0225571 0.0223059 0.0510661 0.0225505 0.0219347 0.054415 0.0284568 
0.00600921 0.0595647 0.024665 0.00732963 0.0599304 0.025768 0.00116495 0.0626606 0.0244964 
0.00325688 0.0596021 0.0243163 0.00405508 0.0575795 0.0253897 0.0109285 0.060463 0.0248981 
0.00882989 0.0633984 0.0250741 0.00926841 0.0591704 0.0243622 0.01565 0.058995 0.0265224 
0.0212105 0.0652675 0.0240092 0.0230915 0.0613024 0.0286463 0.0225131 0.0579683 0.0238329 
0.0229643 0.0573918 0.0227079 0.0201613 0.0604845 0.0251457 0.0198391 0.0578229 0.0271303 
0.0182159 0.0616322 0.0256094 0.00250302 0.0657788 0.0237513 0.00716431 0.067655 0.0294656 
0.00053673 0.0676873 0.0252196 0.00731103 0.0668055 0.0251866 0.0107493 0.0662201 0.0271242 
0.00969081 0.0693485 0.0283021 0.0159659 0.0640293 0.0237702 0.0146509 0.0689022 0.0237477 
0.00977575 0.0683742 0.0253 0.0220007 0.0706197 0.0242887 0.0194574 0.0659653 0.0248824 
0.0213053 0.0693202 0.0242493 0.000988498 0.0723113 0.0250994 0.00490646 0.0714855 0.0280158 
0.00416394 0.075947 0.0235886 0.00659006 0.0750761 0.0257917 0.00859638 0.0760552 0.0254701 
0.00999439 0.0770935 0.0237997 0.0145553 0.0752621 0.0237423 0.00853066 0.0740534 0.0235563 
0.0234415 0.0712874 0.0235695 0.0158062 0.0734498 0.0232809 0.0216946 0.043612 0.0215512 
0.0111307 0.0577558 0.0254084 0.00345725 0.00664023 0.0247993 0.0178584 0.0083454 0.0213189 
0.0174635 0.0441907 0.0257189 
VERTICES 172 344
1 0 
1 1 
1 2 
1 3 
1 4 
1 5 
1 6 
1 7 
1 8 
1 9 
1 10 
1 11 
1 12 
1 13 
1 14 
1 15 
1 16 
1 17 
1 18 
1 19 
1 20 
1 21 
1 22 
1 23 
1 24 
1 25 
1 26 
1 27 
1 28 
1 29 
1 30 
1 31 
1 32 
1 33 
1 34 
1 35 
1 36 
1 37 
1 38 
1 39 
1 40 
1 41 
1 42 
1 43 
1 44 
1 45 
1 46 
1 47 
1 48 
1 49 
1 50 
1 51 
1 52 
1 53 
1 54 
1 55 
1 56 
1 57 
1 58 
1 59 
1 60 
1 61 
1 62 
1 63 
1 64 
1 65 
1 66 
1 67 
1 68 
1 69 
1 70 
1 71 
1 72 
1 73 
1 74 
1 75 
1 76 
1 77 
1 78 
1 79 
1 80 
1 81 
1 82 
1 83 
1 84 
1 85 
1 86 
1 87 
1 88 
1 89 
1 90 
1 91 
1 92 
1 93 
1 94 
1 95 
1 96 
1 97 
1 98 
1 99 
1 100 
1 101 
1 102 
1 103 
1 104 
1 105 
1 106 
1 107 
1 108 
1 109 
1 110 
1 111 
1 112 
1 113 
1 114 
1 115 
1 116 
1 117 
1 118 
1 119 
1 120 
1 121 
1 122 
1 123 
1 124 
1 125 
1 126 
1 127 
1 128 
1 129 
1 130 
1 131 
1 132 
1 133 
1 134 
1 135 
1 136 
1 137 
1 138 
1 139 
1 140 
1 141 
1 142 
1 143 
1 144 
1 145 
1 146 
1 147 
1 148 
1 149 
1 150 
1 151 
1 152 
1 153 
1 154 
1 155 
1 156 
1 157 
1 158 
1 159 
1 160 
1 161 
1 162 
1 163 
1 164 
1 165 
1 166 
1 167 
1 168 
1 169 
1 170 
1 171 

POINT_DATA 172
FIELD FieldData 7
id 1 172 int
51 25 161 155 159 16 151 30 100 
42 113 49 33 13 28 44 66 70 
36 78 54 152 3 5 38 138 11 
37 58 88 105 136 165 112 94 8 
147 45 82 86 81 39 14 134 87 
149 125 163 31 6 160 123 32 108 
126 89 115 156 142 10 17 64 97 
120 57 77 92 106 143 35 59 75 
98 110 121 47 80 90 154 164 46 
109 55 19 61 62 99 137 2 15 
153 34 130 12 162 41 43 71 118 
148 60 91 144 1 122 40 95 119 
124 139 63 73 146 7 145 74 114 
20 56 67 102 116 129 24 27 48 
133 84 157 107 4 96 103 140 141 
68 111 158 83 117 18 104 131 150 
166 76 53 132 135 21 72 9 26 
128 52 65 93 69 50 22 127 23 
29 79 101 85 167 168 169 170 171 
172 
type 1 172 int
1 1 1 1 1 1 1 1 1 
1 1 1 1 1 1 1 1 1 
1 1 1 1 1 1 1 1 1 
1 1 1 1 1 1 1 1 1 
1 1 1 1 1 1 1 1 1 
1 1 1 1 1 1 1 1 1 
1 1 1 1 1 1 1 1 1 
1 1 1 1 1 1 1 1 1 
1 1 1 1 1 1 1 1 1 
1 1 1 1 1 1 1 1 1 
1 1 1 1 1 1 1 1 1 
1 1 1 1 1 1 1 1 1 
1 1 1 1 1 1 1 1 1 
1 1 1 1 1 1 1 1 1 
1 1 1 1 1 1 1 1 1 
1 1 1 1 1 1 1 1 1 
1 1 1 1 1 1 1 1 1 
1 1 1 1 1 1 1 1 1 
1 1 1 1 1 1 1 1 1 
1 
i 3 172 int
0 0 0 0 0 0 0 0 0 
0 0 0 0 0 0 0 0 0 
0 0 0 0 0 0 0 0 0 
0 0 0 0 0 0 0 0 0 
0 0 0 0 0 0 0 0 0 
0 0 0 0 0 0 0 0 0 
0 0 0 0 0 0 0 0 0 
0 0 0 0 0 0 0 0 0 
0 0 0 0 0 0 0 0 0 
0 0 0 0 0 0 0 0 0 
0 0 0 0 0 0 0 0 0 
0 0 0 0 0 0 0 0 0 
0 0 0 0 0 0 0 0 0 
0 0 0 0 0 0 0 0 0 
0 0 0 0 0 0 0 0 0 
0 0 0 0 0 0 0 0 0 
0 0 0 0 0 0 0 0 0 
0 0 0 0 0 0 0 0 0 
0 0 0 0 0 0 0 0 0 
0 0 0 0 0 0 0 0 0 
0 0 0 0 0 0 0 0 0 
0 0 0 0 0 0 0 0 0 
0 0 0 0 0 0 0 0 0 
0 0 0 0 0 0 0 0 0 
0 0 0 0 0 0 0 0 0 
0 0 0 0 0 0 0 0 0 
0 0 0 0 0 0 0 0 0 
0 0 0 0 0 0 0 0 0 
0 0 0 0 0 0 0 0 0 
0 0 0 0 0 0 0 0 0 
0 0 0 0 0 0 0 0 0 
0 0 0 0 0 0 0 0 0 
0 0 0 0 0 0 0 0 0 
0 0 0 0 0 0 0 0 0 
0 0 0 0 0 0 0 0 0 
0 0 0 0 0 0 0 0 0 
0 0 0 0 0 0 0 0 0 
0 0 0 0 0 0 0 0 0 
0 0 0 0 0 0 0 0 0 
0 0 0 0 0 0 0 0 0 
0 0 0 0 0 0 0 0 0 
0 0 0 0 0 0 0 0 0 
0 0 0 0 0 0 0 0 0 
0 0 0 0 0 0 0 0 0 
0 0 0 0 0 0 0 0 0 
0 0 0 0 0 0 0 0 0 
0 0 0 0 0 0 0 0 0 
0 0 0 0 0 0 0 0 0 
0 0 0 0 0 0 0 0 0 
0 0 0 0 0 0 0 0 0 
0 0 0 0 0 0 0 0 0 
0 0 0 0 0 0 0 0 0 
0 0 0 0 0 0 0 0 0 
0 0 0 0 0 0 0 0 0 
0 0 0 0 0 0 0 0 0 
0 0 0 0 0 0 0 0 0 
0 0 0 0 0 0 0 0 0 
0 0 0 
v 3 172 double
0 0 -0.537073 0 0 1.6369 0 0 -0.0571187 
0 0 -0.079927 0 0 -0.0654572 0 0 -0.646945 
0 0 -0.106659 0 0 2.11599 -13.1252 -22.5468 2.70009 
1.33277 2.14241 0.90412 0 0 -0.282013 -3.53426 3.28991 -4.35861 
0.331388 0.252846 1.01433 0 0 -0.66681 0 0 -0.618496 
0 0 -0.543449 0 0 -0.464234 0 0 -0.450254 
0 0 1.32066 0 0 -0.408807 0 0 -0.527999 
0 0 -0.103716 0 0 1.50429e-11 2.07722 -1.8439 1.21851 
0 0 -0.599857 0 0 -0.170915 0 0 -0.680544 
0 0 -0.602064 0 0 -0.506662 0 0 -0.369567 
0 0 -0.317329 0 0 -0.179253 0 0 -0.0502517 
0 0 -0.295502 1.27933 0.509668 -1.60535 0 0 0.148211 
0 0 -0.123091 0 0 -0.542223 -0.118945 -0.203496 -0.685642 
0 0 -0.380113 0 0 -0.405619 0 0 -0.586368 
0 0 -0.65651 0 0 -0.188573 0 0 -0.378887 
0 0 -0.114262 0 0 -0.228303 0 0 -0.0522137 
0 0 -4.39225 0 0 -0.70556 0 0 -0.0605522 
0 0 -0.249395 0.738708 -24.2895 -21.122 0 0 -6.93155 
0 0 -0.227813 0 0 -0.357059 0 0 -0.275391 
0 0 -0.0791912 0 0 -9.30909 0 0 -0.692316 
0 0 -0.645964 0 0 -0.470855 0 0 -16.5358 
-0.204921 6.738 -22.0876 0 0 -5.53606 0 0 -0.413222 
0 0 -0.351419 0 0 -0.316838 0 0 -0.129713 
0 0 -1.91045 0 0 -0.492683 0 0 -0.419843 
0 0 -0.337194 0 0 -0.305557 0 0 -0.261412 
0 0 -1.97869 0 0 -0.406845 -1.25193 0.553812 -0.526388 
0 0 -0.0836057 0 0 -0.0509875 -2.7657 -2.73023 -3.38796 
0 0 -0.309481 0 0 -2.26056 0 0 -0.64204 
0 0 -0.488268 0 0 -0.484589 0 0 -0.330572 
0 0 -0.173367 0 0 -0.716596 0 0 -0.647926 
0 0 -0.0958682 0 0 -0.607705 0 0 -0.211871 
0 0 -0.673922 0 0 -0.052459 0 0 -0.555467 
0 0 -0.544676 0 0 -0.445104 0 0 -0.264355 
0 0 -0.116714 0 0 -0.490475 0 0 -0.353626 
0 0 -0.126524 0 0 -0.718067 0 0 -0.257488 
0 0 -6.76554 0 0 -0.33842 0 0 -0.263864 
0 0 -0.233453 0 0 -0.165764 0 0 -0.471101 
0 0 -0.434313 0 0 -0.123827 0 0 -0.695014 
0 0 -0.125298 0 0 -0.424748 0 0 -0.276127 
0.722634 16.7921 -5.44846 0 0 -0.511812 0 0 -0.461781 
0 0 -0.323215 0 0 -0.272448 0 0 -0.215305 
0 0 -0.629042 -9.2587 -25.4875 27.3547 0 0 -0.53879 
0 0 -0.204023 0 0 -0.384773 0 0 -18.1857 
-4.17076 -1.15514 7.1089 1.75954 0.487324 1.4963 0 0 -0.337685 
0 0 -0.319781 0 0 -0.165029 9.10599 7.09029 21.4155 
0.281672 -0.531717 -0.651074 -1.13825 -0.886286 0.807013 1.36336 4.12755 67.3356 
9.31357 50.5572 27.9865 0 0 -5.38265 0 0 -0.643266 
0 0 -0.319536 0 0 -0.209909 -0.0783486 -0.425302 -22.4656 
20.4307 22.1196 21.6282 0 0 -0.414448 -4.75064 -6.8641 -0.402172 
0 0 -0.204514 0 0 -0.183668 11.4255 1.10452 3.66616 
5.3792 -2.06789 -1.96385 0 0 -0.693052 0 0 -0.62291 
0 0 -0.217267 0 0 -0.534375 0 0 -0.468893 
0 0 -0.343571 1.32406 7.05562 -11.3402 -2.5581 1.1955 -2.1455 
0 0 -0.638116 0 0 -0.218003 0 0 -0.631739 
0 0 -0.617024 0 0 -14.9453 0 0 -0.328365 
0 0 -0.384282 0 0 -0.0477992 0 0 -0.0451015 
0 0 -0.03382 0 0 -0.0306317 0 0 -0.0252362 
0 0 -0.000711225 
f 3 172 double
0 0 -2.27547e-06 0 0 -3.55542e-05 0 0 -7.67972e-06 
0 0 -3.55542e-05 0 0 -2.27547e-06 0 0 -1.82038e-05 
0 0 -7.67972e-06 0 0 -1.82038e-05 0 0 -2.27547e-06 
0 0 -7.67972e-06 0 0 -2.27547e-06 0 0 -2.27547e-06 
0 0 -0.00014563 0 0 -2.27547e-06 0 0 -7.67972e-06 
0 0 -7.67972e-06 0 0 -2.27547e-06 0 0 -2.27547e-06 
0 0 -9.75608e-05 0 0 -2.27547e-06 0 0 -1.82038e-05 
0 0 -2.27547e-06 0 0 0 0 0 -3.55542e-05 
0 0 -7.67972e-06 0 0 -2.27547e-06 0 0 -7.67972e-06 
0 0 -0.00014563 0 0 -7.67972e-06 0 0 -2.27547e-06 
0 0 -2.27547e-06 0 0 -7.67972e-06 0 0 -2.27547e-06 
0 0 -7.67972e-06 0 0 -1.82038e-05 0 0 -2.27547e-06 
0 0 -2.27547e-06 0 0 -3.55542e-05 0 0 -6.14377e-05 
0 0 -1.82038e-05 0 0 -7.67972e-06 0 0 -7.67972e-06 
0 0 -2.27547e-06 0 0 -2.27547e-06 0 0 -2.27547e-06 
0 0 -2.27547e-06 0 0 -2.27547e-06 0 0 -2.27547e-06 
0 0 -6.14377e-05 0 0 -1.82038e-05 0 0 -9.75608e-05 
0 0 -1.82038e-05 0 0 -2.27547e-06 0 0 -3.55542e-05 
0 0 -6.14377e-05 0 0 -2.27547e-06 0 0 -3.55542e-05 
0 0 -2.27547e-06 0 0 -7.67972e-06 0 0 -2.27547e-06 
0 0 -7.67972e-06 0 0 -1.82038e-05 0 0 -1.82038e-05 
0 0 -1.82038e-05 0 0 -6.14377e-05 0 0 -7.67972e-06 
0 0 -1.82038e-05 0 0 -2.27547e-06 0 0 -2.27547e-06 
0 0 -6.14377e-05 0 0 -2.27547e-06 0 0 -7.67972e-06 
0 0 -6.14377e-05 0 0 -2.27547e-06 0 0 -2.27547e-06 
0 0 -2.27547e-06 0 0 -1.82038e-05 0 0 -7.67972e-06 
0 0 -7.67972e-06 0 0 -2.27547e-06 0 0 -7.67972e-06 
0 0 -2.27547e-06 0 0 -1.82038e-05 0 0 -3.55542e-05 
0 0 -2.27547e-06 0 0 -0.00014563 0 0 -7.67972e-06 
0 0 -2.27547e-06 0 0 -9.75608e-05 0 0 -1.82038e-05 
0 0 -2.27547e-06 0 0 -2.27547e-06 0 0 -2.27547e-06 
0 0 -7.67972e-06 0 0 -2.27547e-06 0 0 -7.67972e-06 
0 0 -2.27547e-06 0 0 -2.27547e-06 0 0 -3.55542e-05 
0 0 -2.27547e-06 0 0 -9.75608e-05 0 0 -7.67972e-06 
0 0 -1.82038e-05 0 0 -7.67972e-06 0 0 -1.82038e-05 
0 0 -2.27547e-06 0 0 -2.27547e-06 0 0 -2.27547e-06 
0 0 -7.67972e-06 0 0 -1.82038e-05 0 0 -9.75608e-05 
0 0 -1.82038e-05 0 0 -2.27547e-06 0 0 -2.27547e-06 
0 0 -6.14377e-05 0 0 -7.67972e-06 0 0 -1.82038e-05 
0 0 -2.27547e-06 0 0 -2.27547e-06 0 0 -2.27547e-06 
0 0 -2.27547e-06 0 0 -2.27547e-06 0 0 -2.27547e-06 
0 0 -3.55542e-05 0 0 -3.55542e-05 0 0 -3.55542e-05 
0 0 -2.27547e-06 0 0 -3.55542e-05 0 0 -1.82038e-05 
0 0 -7.67972e-06 0 0 -1.82038e-05 0 0 -2.27547e-06 
0 0 -6.14377e-05 0 0 -2.27547e-06 0 0 -2.27547e-06 
0 0 -0.00014563 0 0 -1.82038e-05 0 0 -0.000207352 
0 0 -2.27547e-06 0 0 -7.67972e-06 0 0 -2.27547e-06 
0 0 -2.27547e-06 0 0 -2.27547e-06 0 0 -3.55542e-05 
0 0 -2.27547e-06 0 0 -2.27547e-06 0 0 -2.27547e-06 
0 0 -2.27547e-06 0 0 -2.27547e-06 0 0 -7.67972e-06 
0 0 -6.14377e-05 0 0 -9.75608e-05 0 0 -9.75608e-05 
0 0 -2.27547e-06 0 0 -2.27547e-06 0 0 -2.27547e-06 
0 0 -2.27547e-06 0 0 -7.67972e-06 0 0 -6.14377e-05 
0 0 -7.67972e-06 0 0 -2.27547e-06 0 0 -7.67972e-06 
0 0 -7.67972e-06 0 0 -1.82038e-05 0 0 -2.27547e-06 
0 0 -2.27547e-06 0 0 -1.82038e-05 0 0 -6.14377e-05 
0 0 -3.55542e-05 0 0 -1.82038e-05 0 0 -7.67972e-06 
0 0 -1.82038e-05 
radius 1 172 double
0.0005 0.00125 0.00075 0.00125 0.0005 0.001 0.00075 0.001 0.0005 
0.00075 0.0005 0.0005 0.002 0.0005 0.00075 0.00075 0.0005 0.0005 
0.00175 0.0005 0.001 0.0005 0.0005 0.00125 0.00075 0.0005 0.00075 
0.002 0.00075 0.0005 0.0005 0.00075 0.0005 0.00075 0.001 0.0005 
0.0005 0.00125 0.0015 0.001 0.00075 0.00075 0.0005 0.0005 0.0005 
0.0005 0.0005 0.0005 0.0015 0.001 0.00175 0.001 0.0005 0.00125 
0.0015 0.0005 0.00125 0.0005 0.00075 0.0005 0.00075 0.001 0.001 
0.001 0.0015 0.00075 0.001 0.0005 0.0005 0.0015 0.0005 0.00075 
0.0015 0.0005 0.0005 0.0005 0.001 0.00075 0.00075 0.0005 0.00075 
0.0005 0.001 0.00125 0.0005 0.002 0.00075 0.0005 0.00175 0.001 
0.0005 0.0005 0.0005 0.00075 0.0005 0.00075 0.0005 0.0005 0.00125 
0.0005 0.00175 0.00075 0.001 0.00075 0.001 0.0005 0.0005 0.0005 
0.00075 0.001 0.00175 0.001 0.0005 0.0005 0.0015 0.00075 0.001 
0.0005 0.0005 0.0005 0.0005 0.0005 0.0005 0.00125 0.00125 0.00125 
0.0005 0.00125 0.001 0.00075 0.001 0.0005 0.0015 0.0005 0.0005 
0.002 0.001 0.00225 0.0005 0.00075 0.0005 0.0005 0.0005 0.00125 
0.0005 0.0005 0.0005 0.0005 0.0005 0.00075 0.0015 0.00175 0.00175 
0.0005 0.0005 0.0005 0.0005 0.00075 0.0015 0.00075 0.0005 0.00075 
0.00075 0.001 0.0005 0.0005 0.001 0.0015 0.00125 0.001 0.00075 
0.001 
omega 3 172 double
0 0 0 0 0 0 0 0 0 
0 0 0 0 0 0 0 0 0 
0 0 0 0 0 0 1165.18 -537.695 -49.8909 
-589.558 407.932 35.1117 0 0 0 2464.68 2680.79 28.4915 
-125.834 165.012 0.611714 0 0 0 0 0 0 
0 0 0 0 0 0 0 0 0 
0 0 0 0 0 0 0 0 0 
0 0 0 0 0 0 839.919 946.199 2.09638e-14 
0 0 0 0 0 0 0 0 0 
0 0 0 0 0 0 0 0 0 
0 0 0 0 0 0 0 0 0 
0 0 0 -186.519 -214.275 -273.926 0 0 0 
0 0 0 0 0 0 64.4405 33.5877 -50.3757 
0 0 0 0 0 0 0 0 0 
0 0 0 0 0 0 0 0 0 
0 0 0 0 0 0 0 0 0 
0 0 0 0 0 0 0 0 0 
0 0 0 -47479.2 -1443.97 9.21469e-11 0 0 0 
0 0 0 0 0 0 0 0 0 
0 0 0 0 0 0 0 0 0 
0 0 0 0 0 0 0 0 0 
6754.8 205.432 6.01831e-12 0 0 0 0 0 0 
0 0 0 0 0 0 0 0 0 
0 0 0 0 0 0 0 0 0 
0 0 0 0 0 0 0 0 0 
0 0 0 0 0 0 177.327 237.02 -533.268 
0 0 0 0 0 0 -876.587 2182.53 -533.268 
0 0 0 0 0 0 0 0 0 
0 0 0 0 0 0 0 0 0 
0 0 0 0 0 0 0 0 0 
0 0 0 0 0 0 0 0 0 
0 0 0 0 0 0 0 0 0 
0 0 0 0 0 0 0 0 0 
0 0 0 0 0 0 0 0 0 
0 0 0 0 0 0 0 0 0 
0 0 0 0 0 0 0 0 0 
0 0 0 0 0 0 0 0 0 
0 0 0 0 0 0 0 0 0 
0 0 0 0 0 0 0 0 0 
47370.1 37019.3 17205.7 0 0 0 0 0 0 
0 0 0 0 0 0 0 0 0 
0 0 0 11345.9 -4121.57 1.58013e-12 0 0 0 
0 0 0 0 0 0 0 0 0 
-816.723 2948.87 -4.93371e-12 -258.561 933.564 -1.56178e-12 0 0 0 
0 0 0 0 0 0 5432.51 -6976.92 -1.11139e-11 
-24.8922 48.7696 -123.468 340.192 -436.905 -6.96221e-13 1040.51 -352.117 -1.20015 
-39660.2 7306.14 7.26365e-12 0 0 0 0 0 0 
0 0 0 0 0 0 -328.574 60.5295 1.87638e-13 
-17963.2 17073.2 -489.463 0 0 0 -1058.77 -1925.27 -121.859 
0 0 0 0 0 0 4973.02 12747.3 -5426 
-1379.09 -3586.81 -1.51465 0 0 0 0 0 0 
0 0 0 0 0 0 0 0 0 
0 0 0 12119.7 15792.8 6866.13 538.349 1151.94 -2.51219e-11 
0 0 0 0 0 0 0 0 0 
0 0 0 0 0 0 0 0 0 
0 0 0 0 0 0 0 0 0 
0 0 0 0 0 0 0 0 0 
0 0 0 
