# vtk DataFile Version 4.0
Generated by LIGGGHTS
ASCII
DATASET POLYDATA
POINTS 1113 float
0.00541226 0.00443202 0.0219994 0.00241555 0.00176233 0.0214997 0.00751738 0.00315853 0.02075 
0.000810327 0.00109334 0.0205012 0.00616297 0.00204979 0.02075 0.00700164 0.00058093 0.0205077 
0.00507064 0.00131704 0.0204999 0.000898852 0.00313965 0.0205 0.00269301 0.004042 0.0205 
0.00744307 0.00535135 0.0205 0.000501501 0.000500105 0.0212461 0.00100057 0.0046989 0.0216452 
0.00445982 0.0021083 0.0205283 0.00576075 0.000501222 0.0205 0.000728388 0.00563348 0.0205 
0.000502859 0.00647233 0.0209954 0.00756238 0.00651828 0.022292 0.00795335 0.00652209 0.0208216 
0.00891583 0.0040046 0.0213951 0.0139019 0.0016233 0.0205 0.0115032 0.00263968 0.0205 
0.0149027 0.000761331 0.0207694 0.012517 0.00246097 0.0205 0.0118805 0.00136378 0.0205 
0.0134906 0.00050011 0.0210265 0.0119227 0.00232247 0.0222548 0.0128794 0.00152261 0.0205 
0.0103586 0.000564963 0.0208336 0.00883326 0.000773741 0.0207515 0.0108862 0.00333713 0.0210122 
0.014745 0.00219812 0.0205 0.010441 0.0018918 0.0207531 0.0120304 0.00366435 0.0205001 
0.011654 0.00466353 0.0205203 0.0125925 0.00604469 0.0207511 0.0118156 0.00317264 0.0213443 
0.0137334 0.00370263 0.0215488 0.0100111 0.00307378 0.0205417 0.0112227 0.000761171 0.0218627 
0.0125261 0.00589807 0.0225031 0.0140532 0.00537053 0.0204976 0.00892634 0.00138842 0.0218425 
0.0102345 0.0051966 0.0214716 0.0142074 0.00676447 0.021022 0.0155759 0.00570977 0.0207498 
0.00980828 0.00326013 0.0223582 0.0159521 0.00445338 0.0205 0.0164088 0.000750523 0.02075 
0.0232498 0.000749958 0.0207506 0.0224638 0.00347241 0.0205 0.0234967 0.00345891 0.0205 
0.021459 0.00243894 0.0209999 0.0162822 0.00270301 0.0212501 0.02325 0.00493742 0.0221297 
0.02325 0.00224991 0.0207499 0.0217227 0.00447258 0.02075 0.023074 0.00549871 0.0207499 
0.0233918 0.00674076 0.0205 0.0206973 0.0038665 0.0216971 0.0182922 0.00419774 0.0212499 
0.0161689 0.00459287 0.0215783 0.0191536 0.00150431 0.0214992 0.0229989 0.0010004 0.0224667 
0.0229591 0.00321259 0.022182 0.0202343 0.00456075 0.0205 0.0199543 0.00538465 0.0222021 
0.0232394 0.00646845 0.0220605 0.00294061 0.00733092 0.0205 0.0059943 0.00949795 0.0205 
0.00489881 0.0121754 0.0205 0.00296528 0.00887501 0.021 0.00573476 0.0108662 0.0205 
0.00128807 0.00817489 0.02075 0.00612697 0.0122167 0.0215725 0.00153252 0.0109533 0.0214999 
0.00759816 0.00894266 0.0205 0.00334442 0.0102458 0.0205 0.000503777 0.0123598 0.0205003 
0.000552876 0.00905416 0.0213924 0.00460111 0.00910211 0.0206476 0.000595965 0.0133595 0.0205 
0.00057817 0.00745723 0.0215685 0.000500222 0.00833336 0.0221351 0.00360439 0.00990533 0.0220362 
0.00770409 0.0084479 0.0217994 0.0084384 0.012321 0.0214997 0.0137424 0.0102164 0.0207608 
0.0128544 0.0078383 0.0207495 0.015914 0.0102735 0.0210008 0.0131002 0.0128485 0.0207508 
0.014365 0.0126765 0.0216464 0.0123537 0.0138522 0.0205068 0.0149014 0.0123416 0.0205071 
0.0138497 0.0114394 0.0205 0.01169 0.00957851 0.0215705 0.0131955 0.0080544 0.0223125 
0.0107471 0.00798192 0.0205025 0.0126347 0.0115909 0.0207484 0.014317 0.00967787 0.0223485 
0.0132874 0.0112388 0.0214907 0.014872 0.0133424 0.0205017 0.0156329 0.0116594 0.0205006 
0.0124979 0.0133003 0.021868 0.0188506 0.0076504 0.02075 0.0216924 0.00912157 0.0205 
0.0211985 0.00743621 0.0214999 0.0231357 0.00810201 0.0205001 0.0229998 0.00943247 0.0211852 
0.0184134 0.0111513 0.0217483 0.0206347 0.0117892 0.0216391 0.0214869 0.0107273 0.0209998 
0.0187348 0.00889812 0.0205 0.0205115 0.00941967 0.0205 0.0197181 0.00866055 0.020603 
0.0229985 0.0120338 0.021119 0.016269 0.0128973 0.0210703 0.0204961 0.00955501 0.0218487 
0.0205494 0.0121463 0.0205 0.0192663 0.00857494 0.0220642 0.0176642 0.00931189 0.0205 
0.019586 0.0133439 0.0212909 0.0215437 0.0129368 0.02075 0.0233362 0.0133583 0.0205001 
0.019051 0.00717249 0.0219017 0.0234985 0.0105492 0.0222884 0.0219326 0.00976041 0.0222416 
0.0166413 0.00775775 0.0224656 0.0203666 0.0140462 0.0224382 0.00537103 0.0142133 0.0207555 
0.00572329 0.0164353 0.0212499 0.00266194 0.0180044 0.0210024 0.00586138 0.0185661 0.0205 
0.00408837 0.0173236 0.0205 0.00393676 0.0187109 0.0205031 0.00102054 0.0181037 0.0205 
0.00200185 0.0151559 0.0219998 0.00796438 0.0152779 0.0207914 0.00718211 0.0172996 0.0205 
0.00199574 0.0193559 0.0205 0.00488201 0.019169 0.0205 0.000502367 0.0184967 0.0212596 
0.00735855 0.0190373 0.02075 0.000540787 0.0197771 0.0211557 0.0060202 0.0197834 0.0207507 
0.00353766 0.0202437 0.02125 0.00663689 0.0143237 0.0223141 0.00664959 0.0145324 0.0205739 
0.0051471 0.0177665 0.0224001 0.00746256 0.018516 0.0224336 0.013013 0.0165706 0.0205004 
0.0101466 0.018339 0.0219998 0.0119744 0.0148957 0.0205031 0.0145066 0.0169884 0.020513 
0.0102833 0.0156092 0.02075 0.0156368 0.0179991 0.0209999 0.0123321 0.0158384 0.0204999 
0.0160081 0.0151417 0.0217715 0.0155371 0.0162119 0.0206382 0.011244 0.0164022 0.0205 
0.0133041 0.0181296 0.0212499 0.0137871 0.0148566 0.0215035 0.0107986 0.0153121 0.0221285 
0.0144894 0.0206593 0.0212542 0.0167181 0.0151755 0.0205778 0.0167564 0.0195747 0.0205016 
0.0168803 0.0163443 0.0206856 0.0196772 0.0178476 0.020771 0.0169122 0.0205911 0.0205014 
0.0229758 0.0144591 0.0205 0.0215954 0.0144532 0.02075 0.0175315 0.014189 0.0205043 
0.0189343 0.0156151 0.0214999 0.0183949 0.0202814 0.02075 0.0234227 0.0154971 0.0206184 
0.0233193 0.0185129 0.0205 0.0226156 0.0201185 0.0207511 0.0197957 0.0199767 0.0213827 
0.0168489 0.019838 0.0214651 0.02046 0.0207392 0.0213124 0.0165392 0.0208072 0.0218422 
0.00172352 0.0242467 0.0206307 0.00100713 0.0215483 0.0209999 0.00260944 0.0226128 0.0205 
0.00075043 0.0251198 0.02075 0.00111694 0.0244499 0.0220449 0.0023247 0.0260237 0.0216035 
0.00514223 0.0221591 0.0213279 0.00237447 0.0221837 0.021905 0.00661059 0.0238396 0.0209999 
0.00815025 0.0264534 0.0205 0.0137992 0.0268331 0.0205 0.0131353 0.0255473 0.0205 
0.00839028 0.0216258 0.0214999 0.0152541 0.0220411 0.0205001 0.0148432 0.026937 0.0205306 
0.0210028 0.0256803 0.0205 0.016385 0.0216976 0.0209098 0.0181219 0.0220851 0.0212451 
0.021117 0.0216498 0.02075 0.0217728 0.0271983 0.0214657 0.0225765 0.0216751 0.0205 
0.0197369 0.02764 0.0217007 0.020836 0.0233725 0.0205398 0.0160365 0.0257888 0.02101 
0.0186098 0.0212469 0.0215785 0.0185898 0.0243385 0.0219237 0.000542092 0.0287751 0.0205 
0.00252356 0.0290212 0.0217499 0.00294256 0.0342605 0.0219997 0.000781575 0.0309781 0.0205 
0.00389394 0.0309256 0.02075 0.00117829 0.0322443 0.02075 0.00493774 0.0326403 0.02075 
0.00611914 0.0331132 0.0205 0.00569016 0.0308173 0.0210117 0.000632509 0.0348406 0.0205 
0.00649794 0.0296303 0.0205 0.00383227 0.0314625 0.0222204 0.00766022 0.0303476 0.0207162 
0.00958825 0.0318338 0.0205 0.0140401 0.0301301 0.0205 0.00876167 0.0343968 0.0211769 
0.0124813 0.0329999 0.0205264 0.00846415 0.0290955 0.0212228 0.0108754 0.0320218 0.0205 
0.0117348 0.0296155 0.0217516 0.0101331 0.0342237 0.0222781 0.00827673 0.0335925 0.0208037 
0.0139162 0.0311196 0.0217253 0.0124109 0.0347368 0.0212499 0.0150875 0.033622 0.0224176 
0.00839138 0.0321915 0.0224019 0.0105291 0.0335915 0.0206843 0.016116 0.0348658 0.0207719 
0.0198334 0.0284458 0.02075 0.0166781 0.0328992 0.0205 0.0231184 0.0311379 0.0209982 
0.0185542 0.0286814 0.0205 0.0214081 0.0337141 0.0209998 0.0229293 0.0346157 0.0205 
0.0171506 0.0348555 0.0222734 0.018737 0.0302198 0.0217564 0.0225695 0.035155 0.0222019 
0.00562898 0.0368651 0.0217496 0.00260552 0.038957 0.0207607 0.00349391 0.0399371 0.0205252 
0.00174215 0.039963 0.0205 0.00204225 0.0422125 0.0209999 0.000832487 0.0367317 0.0205 
0.00309557 0.0369168 0.02075 0.000500168 0.0396123 0.0205 0.000782902 0.0409255 0.0207594 
0.00266415 0.0408024 0.0205 0.00435496 0.0389199 0.0208262 0.00372363 0.0416374 0.02075 
0.00445676 0.0405517 0.02052 0.00594446 0.039768 0.0224363 0.00120448 0.0379403 0.0210343 
0.00826781 0.0364319 0.0207499 0.0128445 0.0409229 0.0205936 0.0112713 0.0398098 0.0205 
0.0125533 0.0385858 0.0205 0.00957262 0.0375738 0.0210036 0.0111546 0.0384814 0.02075 
0.00805219 0.0378722 0.0205 0.0103633 0.0408392 0.0205752 0.0109683 0.0400894 0.0218443 
0.00849575 0.0393245 0.0220291 0.0143076 0.0411939 0.0212003 0.0158227 0.0372021 0.0205 
0.00821368 0.0374973 0.0224694 0.0118929 0.0363921 0.0223928 0.0188307 0.0366245 0.0206766 
0.0168377 0.0389652 0.0205 0.0178156 0.0392398 0.0205 0.0234903 0.0385645 0.0205 
0.0224713 0.040103 0.021518 0.019207 0.0373981 0.0215256 0.0226984 0.0376633 0.0215272 
0.0234681 0.0424371 0.0205 0.0167766 0.0373146 0.0217636 0.0164757 0.0400033 0.0218043 
0.00793171 0.0426496 0.02075 0.0012502 0.0442296 0.0217771 0.00246323 0.0441135 0.020509 
0.00150183 0.0471334 0.0220042 0.00231937 0.0452952 0.0205 0.0046345 0.0456423 0.0218523 
0.00099891 0.0493614 0.0209979 0.00429326 0.0474078 0.0205 0.00524949 0.0485535 0.02075 
0.00626185 0.0471873 0.0207508 0.00776464 0.0474526 0.0207894 0.00676611 0.0486003 0.0207499 
0.00587054 0.0492002 0.0219642 0.00711013 0.0467615 0.0216215 0.00772013 0.0484758 0.0215476 
0.00444022 0.0483707 0.0221196 0.0121846 0.0433726 0.0205 0.0091646 0.0432551 0.0212416 
0.010171 0.0453764 0.0221092 0.00870368 0.0486291 0.02075 0.00885992 0.0468857 0.0205 
0.0114835 0.0470608 0.0205 0.0113841 0.049501 0.0218085 0.00992251 0.0477541 0.02075 
0.0148626 0.0473744 0.0222498 0.0124364 0.0473689 0.02092 0.0166101 0.0437353 0.0214999 
0.017118 0.0478171 0.0205 0.023236 0.046813 0.02075 0.0224134 0.0488332 0.0214996 
0.0180081 0.049218 0.0212499 0.0234891 0.0448079 0.0205002 0.0162871 0.0491583 0.0205194 
0.0200158 0.0491403 0.020558 0.0199439 0.0430692 0.0212645 0.0189774 0.0461553 0.0207612 
0.019714 0.047507 0.0217352 0.0199625 0.0443406 0.0216303 0.000508228 0.0530344 0.0218168 
0.000588864 0.052259 0.0205939 0.00114554 0.053101 0.0205 0.00328764 0.0517749 0.0222498 
0.000506361 0.0538773 0.0205 0.000504506 0.0549069 0.0205068 0.00100164 0.056642 0.0209999 
0.0031091 0.0555629 0.0210167 0.00770221 0.050494 0.0215234 0.00572961 0.0502847 0.0205 
[...]
POINT_DATA 1113
FIELD FieldData 7
id 1 1113 int
324 291 561 368 784 32 241 815 448 
228 300 442 816 710 527 256 392 870 
490 199 395 474 282 590 176 364 289 
362 370 783 51 233 217 636 171 549 
126 307 676 581 209 730 764 311 192 
763 66 178 161 159 204 219 108 333 
142 200 340 452 518 185 61 31 123 
273 113 544 577 588 274 360 64 380 
75 154 98 121 427 13 390 879 137 
722 503 1064 1070 35 275 46 80 556 
342 287 714 865 756 318 891 686 571 
975 189 10 569 190 319 57 143 6 
293 735 308 49 146 109 578 139 90 
71 659 967 130 41 231 652 279 693 
33 725 44 439 174 737 713 646 820 
323 872 611 70 508 881 695 550 1 
529 401 1067 943 786 110 62 252 43 
709 260 772 741 450 59 118 188 1061 
198 800 345 592 591 465 78 330 697 
350 719 272 628 42 747 523 813 787 
896 678 482 12 700 600 269 1004 54 
624 152 780 221 717 353 512 582 400 
566 557 238 862 947 144 726 1069 162 
36 249 259 534 522 672 348 831 535 
952 337 1081 505 261 844 886 904 138 
919 925 980 861 471 984 991 1103 640 
698 609 384 982 990 304 937 1083 374 
60 451 433 386 423 366 680 519 579 
668 247 814 733 775 1108 91 328 309 
514 641 626 615 242 584 949 1018 1019 
669 835 985 268 394 326 650 959 848 
993 996 986 347 543 855 145 3 402 
122 354 265 712 495 424 788 682 674 
704 405 570 453 496 40 335 367 533 
403 371 305 410 485 168 499 804 133 
769 935 970 859 1097 866 525 567 487 
357 331 378 94 705 230 361 771 899 
116 781 467 773 88 711 750 11 903 
921 147 977 923 729 936 988 976 653 
8 776 702 415 431 573 73 112 470 
48 258 785 661 863 1102 24 421 446 
244 379 165 381 264 105 694 619 667 
634 948 373 81 414 493 703 778 760 
1010 580 860 540 306 445 26 222 186 
455 129 45 179 271 313 38 477 564 
1079 601 7 226 332 263 86 532 558 
720 314 344 140 926 187 696 736 103 
325 102 779 790 1071 84 964 411 469 
255 157 104 355 18 456 478 225 39 
117 679 645 14 541 589 250 131 586 
745 651 76 243 299 629 167 351 210 
149 69 565 560 22 744 644 132 513 
56 215 53 363 284 295 559 20 184 
443 29 101 197 422 473 182 302 288 
87 125 79 195 435 173 277 206 563 
605 664 407 393 82 464 656 498 239 
398 235 408 404 376 257 134 418 358 
52 141 163 9 329 93 481 234 655 
85 253 312 606 458 746 317 391 385 
153 100 940 684 596 388 466 151 28 
599 320 509 156 175 515 997 864 486 
89 155 858 501 942 598 148 25 220 
170 34 507 524 16 15 572 663 845 
97 868 895 774 369 954 613 1022 1040 
1065 459 160 17 92 202 136 322 2 
281 5 604 290 106 211 724 47 115 
365 372 334 77 631 841 798 208 237 
625 463 842 887 938 941 587 548 583 
406 472 494 998 1001 286 850 633 836 
1066 731 1104 447 810 893 958 979 1028 
890 1080 1086 839 1096 971 213 164 30 
723 542 419 432 538 172 585 794 826 
853 910 648 801 983 1012 536 677 989 
1082 120 1072 691 488 19 436 399 296 
888 911 823 972 824 742 1029 617 673 
782 685 212 657 715 734 833 627 968 
974 838 343 662 874 675 929 1021 932 
789 758 812 837 898 944 956 639 770 
425 1056 1091 180 576 688 223 245 476 
748 647 832 315 285 521 479 1060 1077 
1011 1038 934 718 915 946 978 1024 928 
1035 1078 1094 1085 1105 759 594 1044 908 
492 623 916 957 1020 1048 1015 1017 1087 
1106 483 338 430 412 638 409 749 597 
877 457 897 196 99 504 506 1073 701 
1032 752 1000 1084 909 900 1007 500 966 
1016 1026 1090 1093 1036 375 621 554 236 
316 765 809 945 1053 1068 950 802 883 
901 912 924 960 969 1003 973 1025 1033 
1041 1043 1092 1101 1047 1107 876 961 889 
902 917 553 939 847 856 878 892 927 
962 963 517 981 738 1051 1062 1095 1109 
762 545 1058 462 608 740 607 551 603 
620 822 537 852 920 987 1030 1098 1100 
933 799 811 441 885 930 602 999 1023 
658 992 875 426 670 124 687 526 74 
531 797 520 880 562 1049 1052 1088 382 
807 754 55 397 428 547 37 489 444 
95 665 510 637 193 194 437 791 349 
267 907 1059 278 792 821 654 955 965 
727 396 356 1054 1055 1099 1089 67 739 
416 994 777 931 706 341 828 884 346 
327 649 671 689 690 728 753 808 829 
846 913 1005 1009 502 1031 1037 528 922 
894 766 767 854 276 251 475 681 840 
614 218 806 555 1034 1057 1076 867 692 
454 574 595 618 632 593 716 834 1075 
803 857 352 303 721 227 768 491 438 
413 642 181 301 150 707 793 851 882 
914 1008 1045 1074 575 708 1027 270 417 
96 660 795 796 843 849 951 953 1014 
1050 201 383 612 817 511 818 699 827 
995 1039 1046 191 461 530 484 610 643 
616 321 871 873 905 377 216 906 254 
869 183 205 819 232 761 107 732 757 
4 229 203 50 283 468 539 568 128 
119 635 207 114 1002 1063 630 830 666 
683 434 127 497 359 72 387 546 262 
622 420 292 23 298 805 825 516 918 
1006 1013 1042 480 214 158 440 65 552 
248 83 63 743 68 755 266 135 169 
246 336 339 224 280 429 449 297 111 
58 177 294 310 240 389 21 27 166 
460 751 1110 1111 1112 1113 
type 1 1113 int
1 1 1 1 1 1 1 1 1 
1 1 1 1 1 1 1 1 1 
1 1 1 1 1 1 1 1 1 
1 1 1 1 1 1 1 1 1 
1 1 1 1 1 1 1 1 1 
1 1 1 1 1 1 1 1 1 
1 1 1 1 1 1 1 1 1 
1 1 1 1 1 1 1 1 1 
1 1 1 1 1 1 1 1 1 
1 1 1 1 1 1 1 1 1 
1 1 1 1 1 1 1 1 1 
1 1 1 1 1 1 1 1 1 
1 1 1 1 1 1 1 1 1 
1 1 1 1 1 1 1 1 1 
1 1 1 1 1 1 1 1 1 
1 1 1 1 1 1 1 1 1 
1 1 1 1 1 1 1 1 1 
1 1 1 1 1 1 1 1 1 
1 1 1 1 1 1 1 1 1 
1 1 1 1 1 1 1 1 1 
1 1 1 1 1 1 1 1 1 
1 1 1 1 1 1 1 1 1 
1 1 1 1 1 1 1 1 1 
1 1 1 1 1 1 1 1 1 
1 1 1 1 1 1 1 1 1 
1 1 1 1 1 1 1 1 1 
1 1 1 1 1 1 1 1 1 
1 1 1 1 1 1 1 1 1 
1 1 1 1 1 1 1 1 1 
1 1 1 1 1 1 1 1 1 
1 1 1 1 1 1 1 1 1 
1 1 1 1 1 1 1 1 1 
1 1 1 1 1 1 1 1 1 
1 1 1 1 1 1 1 1 1 
1 1 1 1 1 1 1 1 1 
1 1 1 1 1 1 1 1 1 
1 1 1 1 1 1 1 1 1 
1 1 1 1 1 1 1 1 1 
1 1 1 1 1 1 1 1 1 
1 1 1 1 1 1 1 1 1 
1 1 1 1 1 1 1 1 1 
1 1 1 1 1 1 1 1 1 
1 1 1 1 1 1 1 1 1 
1 1 1 1 1 1 1 1 1 
1 1 1 1 1 1 1 1 1 
1 1 1 1 1 1 1 1 1 
1 1 1 1 1 1 1 1 1 
1 1 1 1 1 1 1 1 1 
1 1 1 1 1 1 1 1 1 
1 1 1 1 1 1 1 1 1 
1 1 1 1 1 1 1 1 1 
1 1 1 1 1 1 1 1 1 
1 1 1 1 1 1 1 1 1 
1 1 1 1 1 1 1 1 1 
1 1 1 1 1 1 1 1 1 
1 1 1 1 1 1 1 1 1 
1 1 1 1 1 1 1 1 1 
1 1 1 1 1 1 1 1 1 
1 1 1 1 1 1 1 1 1 
1 1 1 1 1 1 1 1 1 
1 1 1 1 1 1 1 1 1 
1 1 1 1 1 1 1 1 1 
1 1 1 1 1 1 1 1 1 
1 1 1 1 1 1 1 1 1 
1 1 1 1 1 1 1 1 1 
1 1 1 1 1 1 1 1 1 
1 1 1 1 1 1 1 1 1 
1 1 1 1 1 1 1 1 1 
1 1 1 1 1 1 1 1 1 
1 1 1 1 1 1 1 1 1 
1 1 1 1 1 1 1 1 1 
1 1 1 1 1 1 1 1 1 
1 1 1 1 1 1 1 1 1 
1 1 1 1 1 1 1 1 1 
1 1 1 1 1 1 1 1 1 
1 1 1 1 1 1 1 1 1 
1 1 1 1 1 1 1 1 1 
1 1 1 1 1 1 1 1 1 
1 1 1 1 1 1 1 1 1 
1 1 1 1 1 1 1 1 1 
1 1 1 1 1 1 1 1 1 
1 1 1 1 1 1 1 1 1 
1 1 1 1 1 1 1 1 1 
1 1 1 1 1 1 1 1 1 
1 1 1 1 1 1 1 1 1 
1 1 1 1 1 1 1 1 1 
1 1 1 1 1 1 1 1 1 
1 1 1 1 1 1 1 1 1 
1 1 1 1 1 1 1 1 1 
1 1 1 1 1 1 1 1 1 
1 1 1 1 1 1 1 1 1 
1 1 1 1 1 1 1 1 1 
1 1 1 1 1 1 1 1 1 
1 1 1 1 1 1 1 1 1 
1 1 1 1 1 1 1 1 1 
1 1 1 1 1 1 1 1 1 
1 1 1 1 1 1 1 1 1 
1 1 1 1 1 1 1 1 1 
1 1 1 1 1 1 1 1 1 
1 1 1 1 1 1 1 1 1 
1 1 1 1 1 1 1 1 1 
1 1 1 1 1 1 1 1 1 
1 1 1 1 1 1 1 1 1 
1 1 1 1 1 1 1 1 1 
1 1 1 1 1 1 1 1 1 
1 1 1 1 1 1 1 1 1 
1 1 1 1 1 1 1 1 1 
1 1 1 1 1 1 1 1 1 
1 1 1 1 1 1 1 1 1 
1 1 1 1 1 1 1 1 1 
1 1 1 1 1 1 1 1 1 
1 1 1 1 1 1 1 1 1 
1 1 1 1 1 1 1 1 1 
1 1 1 1 1 1 1 1 1 
1 1 1 1 1 1 1 1 1 
1 1 1 1 1 1 1 1 1 
1 1 1 1 1 1 1 1 1 
1 1 1 1 1 1 1 1 1 
1 1 1 1 1 1 1 1 1 
1 1 1 1 1 1 1 1 1 
1 1 1 1 1 1 1 1 1 
1 1 1 1 1 1 1 1 1 
1 1 1 1 1 1 1 1 1 
1 1 1 1 1 1 
i 3 1113 int
0 0 0 0 0 0 0 0 0 
0 0 0 0 0 0 0 0 0 
0 0 0 0 0 0 0 0 0 
0 0 0 0 0 0 0 0 0 
0 0 0 0 0 0 0 0 0 
0 0 0 0 0 0 0 0 0 
0 0 0 0 0 0 0 0 0 
0 0 0 0 0 0 0 0 0 
0 0 0 0 0 0 0 0 0 
0 0 0 0 0 0 0 0 0 
0 0 0 0 0 0 0 0 0 
0 0 0 0 0 0 0 0 0 
0 0 0 0 0 0 0 0 0 
0 0 0 0 0 0 0 0 0 
0 0 0 0 0 0 0 0 0 
0 0 0 0 0 0 0 0 0 
0 0 0 0 0 0 0 0 0 
0 0 0 0 0 0 0 0 0 
0 0 0 0 0 0 0 0 0 
0 0 0 0 0 0 0 0 0 
0 0 0 0 0 0 0 0 0 
0 0 0 0 0 0 0 0 0 
0 0 0 0 0 0 0 0 0 
0 0 0 0 0 0 0 0 0 
0 0 0 0 0 0 0 0 0 
0 0 0 0 0 0 0 0 0 
0 0 0 0 0 0 0 0 0 
0 0 0 0 0 0 0 0 0 
0 0 0 0 0 0 0 0 0 
0 0 0 0 0 0 0 0 0 
0 0 0 0 0 0 0 0 0 
0 0 0 0 0 0 0 0 0 
0 0 0 0 0 0 0 0 0 
0 0 0 0 0 0 0 0 0 
0 0 0 0 0 0 0 0 0 
0 0 0 0 0 0 0 0 0 
0 0 0 0 0 0 0 0 0 
0 0 0 0 0 0 0 0 0 
0 0 0 0 0 0 0 0 0 
0 0 0 0 0 0 0 0 0 
0 0 0 0 0 0 0 0 0 
0 0 0 0 0 0 0 0 0 
0 0 0 0 0 0 0 0 0 
0 0 0 0 0 0 0 0 0 
0 0 0 0 0 0 0 0 0 
0 0 0 0 0 0 0 0 0 
0 0 0 0 0 0 0 0 0 
0 0 0 0 0 0 0 0 0 
0 0 0 0 0 0 0 0 0 
0 0 0 0 0 0 0 0 0 
0 0 0 0 0 0 0 0 0 
0 0 0 0 0 0 0 0 0 
0 0 0 0 0 0 0 0 0 
0 0 0 0 0 0 0 0 0 
0 0 0 0 0 0 0 0 0 
0 0 0 0 0 0 0 0 0 
0 0 0 0 0 0 0 0 0 
0 0 0 0 0 0 0 0 0 
0 0 0 0 0 0 0 0 0 
0 0 0 0 0 0 0 0 0 
0 0 0 0 0 0 0 0 0 
0 0 0 0 0 0 0 0 0 
0 0 0 0 0 0 0 0 0 
0 0 0 0 0 0 0 0 0 
0 0 0 0 0 0 0 0 0 
0 0 0 0 0 0 0 0 0 
0 0 0 0 0 0 0 0 0 
0 0 0 0 0 0 0 0 0 
0 0 0 0 0 0 0 0 0 
0 0 0 0 0 0 0 0 0 
0 0 0 0 0 0 0 0 0 
0 0 0 0 0 0 0 0 0 
0 0 0 0 0 0 0 0 0 
0 0 0 0 0 0 0 0 0 
0 0 0 0 0 0 0 0 0 
0 0 0 0 0 0 0 0 0 
0 0 0 0 0 0 0 0 0 
0 0 0 0 0 0 0 0 0 
0 0 0 0 0 0 0 0 0 
0 0 0 0 0 0 0 0 0 
0 0 0 0 0 0 0 0 0 
0 0 0 0 0 0 0 0 0 
0 0 0 0 0 0 0 0 0 
0 0 0 0 0 0 0 0 0 
0 0 0 0 0 0 0 0 0 
0 0 0 0 0 0 0 0 0 
0 0 0 0 0 0 0 0 0 
0 0 0 0 0 0 0 0 0 
0 0 0 0 0 0 0 0 0 
0 0 0 0 0 0 0 0 0 
0 0 0 0 0 0 0 0 0 
0 0 0 0 0 0 0 0 0 
0 0 0 0 0 0 0 0 0 
0 0 0 0 0 0 0 0 0 
0 0 0 0 0 0 0 0 0 
0 0 0 0 0 0 0 0 0 
0 0 0 0 0 0 0 0 0 
0 0 0 0 0 0 0 0 0 
0 0 0 0 0 0 0 0 0 
0 0 0 0 0 0 0 0 0 
0 0 0 0 0 0 0 0 0 
0 0 0 0 0 0 0 0 0 
0 0 0 0 0 0 0 0 0 
0 0 0 0 0 0 0 0 0 
0 0 0 0 0 0 0 0 0 
0 0 0 0 0 0 0 0 0 
0 0 0 0 0 0 0 0 0 
0 0 0 0 0 0 0 0 0 
0 0 0 0 0 0 0 0 0 
0 0 0 0 0 0 0 0 0 
0 0 0 0 0 0 0 0 0 
0 0 0 0 0 0 0 0 0 
0 0 0 0 0 0 0 0 0 
0 0 0 0 0 0 0 0 0 
0 0 0 0 0 0 0 0 0 
0 0 0 0 0 0 0 0 0 
0 0 0 0 0 0 0 0 0 
0 0 0 0 0 0 0 0 0 
0 0 0 0 0 0 0 0 0 
0 0 0 0 0 0 0 0 0 
0 0 0 0 0 0 0 0 0 
0 0 0 0 0 0 0 0 0 
0 0 0 0 0 0 0 0 0 
0 0 0 0 0 0 0 0 0 
0 0 0 0 0 0 0 0 0 
0 0 0 0 0 0 0 0 0 
0 0 0 0 0 0 0 0 0 
0 0 0 0 0 0 0 0 0 
0 0 0 0 0 0 0 0 0 
0 0 0 0 0 0 0 0 0 
0 0 0 0 0 0 0 0 0 
0 0 0 0 0 0 0 0 0 
0 0 0 0 0 0 0 0 0 
0 0 0 0 0 0 0 0 0 
0 0 0 0 0 0 0 0 0 
0 0 0 0 0 0 0 0 0 
0 0 0 0 0 0 0 0 0 
0 0 0 0 0 0 0 0 0 
0 0 0 0 0 0 0 0 0 
0 0 0 0 0 0 0 0 0 
0 0 0 0 0 0 0 0 0 
0 0 0 0 0 0 0 0 0 
0 0 0 0 0 0 0 0 0 
0 0 0 0 0 0 0 0 0 
0 0 0 0 0 0 0 0 0 
0 0 0 0 0 0 0 0 0 
0 0 0 0 0 0 0 0 0 
0 0 0 0 0 0 0 0 0 
0 0 0 0 0 0 0 0 0 
0 0 0 0 0 0 0 0 0 
0 0 0 0 0 0 0 0 0 
0 0 0 0 0 0 0 0 0 
0 0 0 0 0 0 0 0 0 
0 0 0 0 0 0 0 0 0 
0 0 0 0 0 0 0 0 0 
0 0 0 0 0 0 0 0 0 
0 0 0 0 0 0 0 0 0 
0 0 0 0 0 0 0 0 0 
0 0 0 0 0 0 0 0 0 
0 0 0 0 0 0 0 0 0 
0 0 0 0 0 0 0 0 0 
0 0 0 0 0 0 0 0 0 
0 0 0 0 0 0 0 0 0 
0 0 0 0 0 0 0 0 0 
0 0 0 0 0 0 0 0 0 
0 0 0 0 0 0 0 0 0 
0 0 0 0 0 0 0 0 0 
0 0 0 0 0 0 0 0 0 
0 0 0 0 0 0 0 0 0 
0 0 0 0 0 0 0 0 0 
0 0 0 0 0 0 0 0 0 
0 0 0 0 0 0 0 0 0 
0 0 0 0 0 0 0 0 0 
0 0 0 0 0 0 0 0 0 
0 0 0 0 0 0 0 0 0 
0 0 0 0 0 0 0 0 0 
0 0 0 0 0 0 0 0 0 
0 0 0 0 0 0 0 0 0 
0 0 0 0 0 0 0 0 0 
0 0 0 0 0 0 0 0 0 
0 0 0 0 0 0 0 0 0 
0 0 0 0 0 0 0 0 0 
0 0 0 0 0 0 0 0 0 
0 0 0 0 0 0 0 0 0 
0 0 0 0 0 0 0 0 0 
0 0 0 0 0 0 0 0 0 
0 0 0 0 0 0 0 0 0 
0 0 0 0 0 0 0 0 0 
0 0 0 0 0 0 0 0 0 
0 0 0 0 0 0 0 0 0 
0 0 0 0 0 0 0 0 0 
0 0 0 0 0 0 0 0 0 
0 0 0 0 0 0 0 0 0 
0 0 0 0 0 0 0 0 0 
0 0 0 0 0 0 0 0 0 
0 0 0 0 0 0 0 0 0 
0 0 0 0 0 0 0 0 0 
0 0 0 0 0 0 0 0 0 
0 0 0 0 0 0 0 0 0 
0 0 0 0 0 0 0 0 0 
0 0 0 0 0 0 0 0 0 
0 0 0 0 0 0 0 0 0 
0 0 0 0 0 0 0 0 0 
0 0 0 0 0 0 0 0 0 
0 0 0 0 0 0 0 0 0 
0 0 0 0 0 0 0 0 0 
0 0 0 0 0 0 0 0 0 
0 0 0 0 0 0 0 0 0 
0 0 0 0 0 0 0 0 0 
0 0 0 0 0 0 0 0 0 
0 0 0 0 0 0 0 0 0 
0 0 0 0 0 0 0 0 0 
0 0 0 0 0 0 0 0 0 
0 0 0 0 0 0 0 0 0 
0 0 0 0 0 0 0 0 0 
0 0 0 0 0 0 0 0 0 
0 0 0 0 0 0 0 0 0 
0 0 0 0 0 0 0 0 0 
0 0 0 0 0 0 0 0 0 
0 0 0 0 0 0 0 0 0 
0 0 0 0 0 0 0 0 0 
0 0 0 0 0 0 0 0 0 
0 0 0 0 0 0 0 0 0 
0 0 0 0 0 0 0 0 0 
0 0 0 0 0 0 0 0 0 
0 0 0 0 0 0 0 0 0 
0 0 0 0 0 0 0 0 0 
0 0 0 0 0 0 0 0 0 
0 0 0 0 0 0 0 0 0 
0 0 0 0 0 0 0 0 0 
0 0 0 0 0 0 0 0 0 
0 0 0 0 0 0 0 0 0 
0 0 0 0 0 0 0 0 0 
0 0 0 0 0 0 0 0 0 
0 0 0 0 0 0 0 0 0 
0 0 0 0 0 0 0 0 0 
0 0 0 0 0 0 0 0 0 
0 0 0 0 0 0 0 0 0 
0 0 0 0 0 0 0 0 0 
0 0 0 0 0 0 0 0 0 
0 0 0 0 0 0 0 0 0 
0 0 0 0 0 0 0 0 0 
0 0 0 0 0 0 0 0 0 
0 0 0 0 0 0 0 0 0 
0 0 0 0 0 0 0 0 0 
0 0 0 0 0 0 0 0 0 
0 0 0 0 0 0 0 0 0 
0 0 0 0 0 0 0 0 0 
0 0 0 0 0 0 0 0 0 
0 0 0 0 0 0 0 0 0 
0 0 0 0 0 0 0 0 0 
0 0 0 0 0 0 0 0 0 
0 0 0 0 0 0 0 0 0 
0 0 0 0 0 0 0 0 0 
0 0 0 0 0 0 0 0 0 
0 0 0 0 0 0 0 0 0 
0 0 0 0 0 0 0 0 0 
0 0 0 0 0 0 0 0 0 
0 0 0 0 0 0 0 0 0 
0 0 0 0 0 0 0 0 0 
0 0 0 0 0 0 0 0 0 
0 0 0 0 0 0 0 0 0 
0 0 0 0 0 0 0 0 0 
0 0 0 0 0 0 0 0 0 
0 0 0 0 0 0 0 0 0 
0 0 0 0 0 0 0 0 0 
0 0 0 0 0 0 0 0 0 
0 0 0 0 0 0 0 0 0 
0 0 0 0 0 0 0 0 0 
0 0 0 0 0 0 0 0 0 
0 0 0 0 0 0 0 0 0 
0 0 0 0 0 0 0 0 0 
0 0 0 0 0 0 0 0 0 
0 0 0 0 0 0 0 0 0 
0 0 0 0 0 0 0 0 0 
0 0 0 0 0 0 0 0 0 
0 0 0 0 0 0 0 0 0 
0 0 0 0 0 0 0 0 0 
0 0 0 0 0 0 0 0 0 
0 0 0 0 0 0 0 0 0 
0 0 0 0 0 0 0 0 0 
0 0 0 0 0 0 0 0 0 
0 0 0 0 0 0 0 0 0 
0 0 0 0 0 0 0 0 0 
0 0 0 0 0 0 0 0 0 
0 0 0 0 0 0 0 0 0 
0 0 0 0 0 0 0 0 0 
0 0 0 0 0 0 0 0 0 
0 0 0 0 0 0 0 0 0 
0 0 0 0 0 0 0 0 0 
0 0 0 0 0 0 0 0 0 
0 0 0 0 0 0 0 0 0 
0 0 0 0 0 0 0 0 0 
0 0 0 0 0 0 0 0 0 
0 0 0 0 0 0 0 0 0 
0 0 0 0 0 0 0 0 0 
0 0 0 0 0 0 0 0 0 
0 0 0 0 0 0 0 0 0 
0 0 0 0 0 0 0 0 0 
0 0 0 0 0 0 0 0 0 
0 0 0 0 0 0 0 0 0 
0 0 0 0 0 0 0 0 0 
0 0 0 0 0 0 0 0 0 
0 0 0 0 0 0 0 0 0 
0 0 0 0 0 0 0 0 0 
0 0 0 0 0 0 0 0 0 
0 0 0 0 0 0 0 0 0 
0 0 0 0 0 0 0 0 0 
0 0 0 0 0 0 0 0 0 
0 0 0 0 0 0 0 0 0 
0 0 0 0 0 0 0 0 0 
0 0 0 0 0 0 0 0 0 
0 0 0 0 0 0 0 0 0 
0 0 0 0 0 0 0 0 0 
0 0 0 0 0 0 0 0 0 
0 0 0 0 0 0 0 0 0 
0 0 0 0 0 0 0 0 0 
0 0 0 0 0 0 0 0 0 
0 0 0 0 0 0 0 0 0 
0 0 0 0 0 0 0 0 0 
0 0 0 0 0 0 0 0 0 
0 0 0 0 0 0 0 0 0 
0 0 0 0 0 0 0 0 0 
0 0 0 0 0 0 0 0 0 
0 0 0 0 0 0 0 0 0 
0 0 0 0 0 0 0 0 0 
0 0 0 0 0 0 0 0 0 
0 0 0 0 0 0 0 0 0 
0 0 0 0 0 0 0 0 0 
0 0 0 0 0 0 0 0 0 
0 0 0 0 0 0 0 0 0 
0 0 0 0 0 0 0 0 0 
0 0 0 0 0 0 0 0 0 
0 0 0 0 0 0 0 0 0 
0 0 0 0 0 0 0 0 0 
0 0 0 0 0 0 0 0 0 
0 0 0 0 0 0 0 0 0 
0 0 0 0 0 0 0 0 0 
0 0 0 0 0 0 0 0 0 
0 0 0 0 0 0 0 0 0 
0 0 0 0 0 0 0 0 0 
0 0 0 0 0 0 0 0 0 
0 0 0 0 0 0 0 0 0 
0 0 0 0 0 0 0 0 0 
0 0 0 0 0 0 0 0 0 
0 0 0 0 0 0 0 0 0 
0 0 0 0 0 0 0 0 0 
0 0 0 0 0 0 0 0 0 
0 0 0 0 0 0 0 0 0 
0 0 0 0 0 0 0 0 0 
0 0 0 0 0 0 0 0 0 
0 0 0 0 0 0 0 0 0 
0 0 0 0 0 0 0 0 0 
0 0 0 0 0 0 0 0 0 
0 0 0 0 0 0 0 0 0 
0 0 0 0 0 0 0 0 0 
0 0 0 0 0 0 0 0 0 
0 0 0 0 0 0 0 0 0 
0 0 0 0 0 0 0 0 0 
0 0 0 0 0 0 0 0 0 
0 0 0 0 0 0 0 0 0 
0 0 0 0 0 0 0 0 0 
0 0 0 0 0 0 0 0 0 
0 0 0 0 0 0 0 0 0 
0 0 0 0 0 0 0 0 0 
0 0 0 0 0 0 0 0 0 
0 0 0 0 0 0 0 0 0 
0 0 0 0 0 0 0 0 0 
0 0 0 0 0 0 0 0 0 
0 0 0 0 0 0 0 0 0 
0 0 0 0 0 0 0 0 0 

v 3 1113 double
1.6233 -0.0973639 0.0250937 -0.334404 0.280256 0.00718187 1.13123 -1.31805 -0.000215196 
-0.602751 0.581718 -0.0151109 1.02249 -0.554086 2.7314e-11 -1.12646 0.279968 -0.118428 
-0.677734 0.322211 0.00704878 -0.40606 -0.378601 9.54322e-12 0.370051 -1.89795 -3.17044e-11 
0.120633 -0.134569 -2.71214e-11 0.0267833 0.00234629 -0.159196 0.00859855 -1.66324 -0.264479 
-0.257868 0.8555 0.110873 -1.77963 -5.42305e-05 4.04354e-12 0.113094 -1.48916 -1.17196e-05 
-0.0358058 -1.17046 -0.607271 1.274 0.711735 -1.37258 -1.28936 -0.26349 -1.9143 
0.44112 -2.55646 -1.73451 -1.64858 -0.712171 -2.34549e-11 -1.17686 -1.2079 3.23245e-08 
0.0235941 0.0849331 0.0793788 -1.30847 -1.37762 4.94459e-06 -1.75958 -2.02107 2.97087e-11 
-1.02934 0.000902848 -1.26687 -1.16506 -0.0844114 0.237336 -1.75614 -1.51658 5.64e-07 
0.455271 0.0991297 -0.647271 0.177314 -0.422939 0.0762038 -1.4987 0.0307432 -0.714802 
-1.20945 -1.13072 2.7114e-11 0.889827 -0.876508 0.0438189 -1.81152 -0.282057 0.00889409 
1.70135 -1.91783 0.189544 -1.93694 -0.737255 0.000943281 -1.76987 -0.27971 0.0746805 
-1.68413 -0.728744 -0.091204 -1.44317 -1.0752 -0.498175 0.846862 0.086974 -0.476978 
-0.199176 -0.881076 0.282487 -0.456025 -1.13905 -0.170521 0.0742218 0.849246 -0.296272 
-0.177426 -1.66425 -1.59177 -1.26397 -1.35251 0.332482 -0.982203 -1.62299 -0.0149128 
2.28914 -2.19898 -1.26506 -1.74376 0.419367 -3.35377e-11 0.0502868 0.0129876 0.0005925 
-0.00469419 0.000232328 -0.00523682 -0.0831972 -0.255681 -1.33721e-11 -0.00465577 0.0234037 4.96015e-12 
-0.0378049 -0.409191 8.79196e-11 -1.4733 -0.0497301 0.0068241 2.24894e-06 -0.00437347 -0.120898 
-0.000429794 0.00100073 0.00185428 0.272707 0.091214 1.09691e-11 -0.144025 0.247661 5.41512e-05 
-0.0801689 0.205814 1.50429e-11 -0.461039 -0.181251 -0.810023 -0.843191 -0.685964 -0.00183399 
-1.51916 0.40686 -0.168813 -0.201575 0.0463356 0.00455309 -0.023959 0.00912131 0.0370009 
-0.141265 0.0220322 -0.0383628 0.201359 -1.90098 1.41263e-11 -0.848777 -0.576209 -0.0275587 
-0.0233463 0.253393 -1.90413 -0.638567 0.324355 1.04598e-11 -0.1474 -1.27245 -1.24555e-11 
0.352041 -0.463493 2.60423e-11 1.36363 0.331269 0.00265346 -0.590349 -0.980373 -3.07878e-11 
1.30785 -0.329294 1.55456e-11 0.507337 -0.131252 -0.50207 0.0944148 -0.144305 -0.00131075 
-0.0541455 -2.34278 -5.12261e-12 0.925314 0.553129 -1.03273e-09 0.049255 0.0194989 -0.0337403 
0.178122 -0.72732 -0.123783 0 0 -1.38466 0.207576 0.0554108 5.22291e-07 
0.238184 -1.08675 -1.02906 0.0268436 -0.851661 -0.65279 0 0 -0.270731 
0 0 -0.260431 0.377414 -1.14869 0.00389012 1.48254 1.57512 0.0604409 
-1.76632 -1.88027 0.048086 -0.685759 0.245322 0.078242 0.556002 -1.54252 0.120433 
1.14946 -1.09912 1.59787 -0.911879 -1.0731 0.177997 -2.6308 -0.700545 0.0613333 
1.65391 1.58778 1.04509e-09 1.22465 -0.150086 0.793046 1.35935 -1.73497 -0.0647633 
-2.55556 -0.204276 -0.0432348 1.02497 0.751838 -1.42811 -0.96291 0.855031 1.15321 
0.992117 1.9538 -0.144438 -0.290417 -0.408844 0.135531 -1.91259 -0.00157584 0.00257745 
0.455635 -2.37597 0.365258 -1.02932 -1.15248 2.32995e-05 -0.0313914 -1.03606 2.51257e-11 
-0.845677 -0.569338 -0.00300747 0.037222 -1.71576 -0.0251122 0.0132861 -1.29868 -0.730643 
-0.292671 -1.00975 0.0729361 0.400765 -1.28915 0.54361 -0.0288184 -1.2225 0.0441314 
-1.30769 -0.959444 -5.80986e-10 -0.118837 -0.977014 1.13765e-11 -0.894386 -0.664094 -1.14405 
-0.0222427 -1.16005 -0.35064 0.187556 -1.06239 0.768556 -1.26507 -0.865948 -0.670643 
-0.808889 -0.971859 3.42918e-11 -1.39186 -0.483059 -0.437817 0.045806 0.979564 1.22931e-11 
0.628216 -0.0658966 -1.92455 -0.283131 -1.39255 -2.88821e-07 -0.135426 -0.939704 -0.00236307 
-1.57083 -1.15824 0.143894 -0.00479716 -0.274663 -0.794032 1.56931 0.594448 -2.20295 
-1.31434 -0.311593 -0.548469 3.53178 -1.28255 -1.10109 -0.198947 -0.346869 0.0241989 
0.230864 0.0782307 -3.00281e-05 -0.581094 -0.602751 -0.0546757 -1.48499 -3.25635 1.6363e-08 
-1.89663 -2.33949 2.78755e-11 0.399854 -2.12819 -0.341642 0.588364 -2.89913 -0.000931971 
0.000772001 -0.431217 0.000126835 0.184216 -2.17347 -0.673922 0.666489 -0.135807 -5.06445e-05 
1.41887 -2.21781 3.77077e-13 -1.22747 -2.60707 3.77076e-13 -0.00587206 -3.38161 -0.157717 
-0.696006 -3.11816 -3.28355e-11 0.123278 -2.27252 -1.78127 -0.999855 -3.28812 -0.0670683 
-2.04395 -2.79181 -0.00518623 1.48996 -0.442435 -1.06842 0.149831 0.0355293 -1.13908 
-0.168028 -1.12285 -1.06945 -1.63605 -0.662096 -1.33046 0.309063 -2.06638 0.0909836 
-0.6566 -2.30117 -0.000339734 -1.20146 -1.30531 0.0436249 1.15154 -1.98766 -0.0141414 
-0.438239 -0.501335 2.40591e-08 0.381204 -0.0186095 5.49275e-07 0.204336 -2.23282 0.0166341 
0.905615 -3.20594 0.809687 0.906596 -1.04584 0.140353 -0.209944 -0.652332 0.0183318 
-0.683024 -2.96719 1.01915e-06 -0.0825451 -1.06405 0.136495 0 0 -0.283239 
-0.031307 -2.49282 0.00015628 1.64272 -2.37743 -0.00861246 0.465545 -2.84502 0.0575024 
0.680907 -1.55197 0.206249 4.69674 -1.92238 0.154223 0.669697 -2.25039 -0.00282735 
-0.384369 -1.0449 -1.06223e-11 -0.714986 -1.38466 0.00273697 2.07621 -2.86709 -0.106883 
1.62539 -1.53907 -0.00181697 0.589378 -0.710735 8.28897e-08 -0.085827 -1.00781 -0.318616 
-0.177055 -3.0662 -7.87246e-12 0.0662826 -1.3131 0.147739 2.53371 -2.54359 -1.26769 
0.848784 -2.92775 0.176438 1.73776 -1.59775 -1.23134 0.577624 -3.29145 -0.956732 
0.372835 -0.470127 -0.388656 0.00531595 -1.16357 1.48841e-11 -3.74383 -1.3861 -2.62048e-11 
0.00636151 -0.372968 -0.0014014 0.509605 -0.175517 -0.0861185 0.322979 -0.308338 -0.786935 
-2.07993 -2.74286 -0.188924 -0.470865 -0.287502 -0.427318 -2.56199 -2.26507 -2.9663e-11 
0.718077 -2.75315 1.77928e-11 -1.42579 -0.640807 9.54322e-12 -0.384092 -0.833657 -2.8038e-11 
-1.41312 -2.26715 -8.06051e-05 -2.15686 -1.22501 0.040147 -1.18213 -0.907667 -0.0864189 
1.56829 0.160973 1.68761e-11 -3.30458 -3.64831 1.71444 4.98603 -3.97138 6.87726 
1.17057 -0.193189 -9.53789e-06 -0.136391 -0.366887 -0.178847 1.48008 -1.04938 2.21031e-12 