# vtk DataFile Version 4.0
Generated by LIGGGHTS
ASCII
DATASET POLYDATA
POINTS 929 float
0.00394404 0.00464433 0.0219997 0.00648972 0.000876694 0.0219795 0.00247443 0.00150383 0.0214999 
0.00701379 0.00463077 0.0214697 0.000650467 0.00112555 0.0205095 0.0052334 0.00221103 0.0211568 
0.00780805 0.00351742 0.0205 0.00744245 0.000741621 0.0214567 0.00496694 0.000590816 0.0205491 
0.00140275 0.00359358 0.0206807 0.00367124 0.00692758 0.0205 0.0023403 0.00618719 0.0205 
0.00729774 0.00546153 0.0205094 0.000534469 0.000503319 0.0216155 0.00710874 0.00587059 0.0216579 
0.00103841 0.00646639 0.0213495 0.0083369 0.000609268 0.0205256 0.0143665 0.00226315 0.0205008 
0.0117266 0.00358981 0.0205 0.015221 0.000750022 0.02075 0.0126702 0.00408526 0.0205239 
0.0114221 0.00263148 0.0205581 0.0142142 0.000500201 0.0214564 0.0132554 0.00159552 0.0219717 
0.0146104 0.00333158 0.0205 0.00947594 0.0005772 0.0213282 0.00888137 0.00235924 0.0207515 
0.0113982 0.00345892 0.0214607 0.0155623 0.00288276 0.0205 0.00982009 0.00356435 0.0207511 
0.0115815 0.00537348 0.0205 0.00845355 0.00390394 0.0221257 0.0129519 0.00594282 0.0205 
0.00943321 0.00483454 0.021626 0.0140988 0.00643103 0.0207554 0.0153707 0.00216371 0.0221748 
0.00897638 0.00673108 0.0221972 0.0129822 0.00545629 0.0222098 0.0156526 0.00498147 0.0215022 
0.0103045 0.00688782 0.0205 0.0173635 0.000844917 0.0207494 0.0232509 0.000749559 0.0207483 
0.0225484 0.00375938 0.0205 0.0234989 0.00344934 0.0205001 0.0215829 0.00272251 0.0209987 
0.0176188 0.0027633 0.0212502 0.02282 0.00475467 0.0220738 0.02325 0.00224973 0.0207501 
0.0215868 0.00448338 0.0208399 0.0232188 0.0053525 0.02075 0.0234859 0.00654947 0.0205006 
0.0208781 0.00381004 0.0221737 0.0193445 0.00512984 0.0212499 0.0177319 0.00555098 0.0219141 
0.0177245 0.00447746 0.0216009 0.0198329 0.00150694 0.0223047 0.0228862 0.000999599 0.0224393 
0.0176675 0.00651994 0.0207619 0.0229858 0.00301438 0.0223927 0.00618223 0.0109632 0.0205 
0.00447201 0.0127178 0.0205 0.00268007 0.00953732 0.0221347 0.0064178 0.0120048 0.0205 
0.00136067 0.00791187 0.0205003 0.000851718 0.00913305 0.02075 0.000500013 0.00834484 0.0216548 
0.00555622 0.0123643 0.0215166 0.00155366 0.0116773 0.0214991 0.000556882 0.00897636 0.0224624 
0.00767125 0.0116168 0.0205 0.00290401 0.0105256 0.0205613 0.000536425 0.0130849 0.0205 
0.000541872 0.0100614 0.0221291 0.00784375 0.0135864 0.0215002 0.00460111 0.00910211 0.0215846 
0.000502311 0.0141039 0.0205 0.0130395 0.0088934 0.0207779 0.0126246 0.00719814 0.0217009 
0.0143186 0.00806284 0.0207679 0.0156146 0.0104728 0.0210199 0.0100771 0.0121041 0.02075 
0.011235 0.0126952 0.0214993 0.0106478 0.013623 0.0205 0.015191 0.00717049 0.0205024 
0.0143717 0.0111835 0.0205195 0.0120055 0.0119318 0.0208064 0.00873771 0.0107781 0.0223983 
0.0135394 0.00831193 0.0221161 0.0131016 0.00714617 0.0205002 0.0117667 0.011317 0.0222569 
0.0161729 0.008129 0.021129 0.0205748 0.00916899 0.0207599 0.0214938 0.0101831 0.0205 
0.0220298 0.00756518 0.0214978 0.0232314 0.00886113 0.020548 0.0225179 0.0100425 0.021614 
0.0203234 0.00715985 0.0205056 0.0184349 0.011359 0.0217499 0.0204793 0.0125883 0.0218192 
0.0216949 0.0117626 0.0210044 0.019895 0.0101864 0.0205006 0.0202877 0.0116074 0.0204997 
0.0208797 0.0104396 0.0216534 0.0171645 0.0131031 0.0205859 0.0229615 0.0133123 0.0210544 
0.017671 0.0140114 0.021833 0.00472835 0.0146492 0.02075 0.00525491 0.0166237 0.0212499 
0.00308446 0.018436 0.0209999 0.00680105 0.020766 0.0208049 0.00623394 0.0199943 0.0205019 
0.00551797 0.0206068 0.0208976 0.000734026 0.0202894 0.0205 0.00200307 0.015676 0.0220033 
0.0077885 0.0173533 0.0210563 0.00779624 0.020179 0.0205039 0.0126835 0.0190404 0.0205 
0.0102595 0.0208094 0.0219995 0.0120327 0.0158348 0.0205 0.0135041 0.0183892 0.0205 
0.0103988 0.0157426 0.02075 0.0152428 0.0187291 0.0209999 0.0124716 0.0169339 0.0212672 
0.0151181 0.0169752 0.0211711 0.0144942 0.0157951 0.0220944 0.0130474 0.016023 0.0220178 
0.0105918 0.0178004 0.022254 0.016641 0.0180693 0.0205034 0.0169289 0.018998 0.0220319 
0.0172151 0.0190236 0.0205811 0.0197052 0.0145856 0.0205 0.0170916 0.0160207 0.0206494 
0.0232376 0.0155697 0.0205004 0.0234988 0.0146009 0.0205003 0.0224531 0.0164538 0.0209264 
0.0218433 0.015095 0.0207498 0.0171176 0.0166465 0.0214783 0.0188736 0.0179443 0.0214999 
0.0179886 0.0203797 0.0211814 0.0213446 0.0172003 0.0208243 0.0234988 0.0181061 0.0205 
0.0234686 0.0165061 0.0221023 0.0219291 0.0187721 0.0225634 0.0161108 0.0174152 0.0224435 
0.00365928 0.021933 0.0205698 0.00147281 0.0232051 0.0210066 0.000892621 0.0214757 0.0205 
0.0064764 0.0242496 0.0205 0.000750393 0.0247792 0.0207602 0.00061858 0.0260019 0.0205587 
0.00512602 0.022957 0.0212499 0.00680248 0.0217637 0.0209037 0.000750734 0.0240061 0.0224166 
0.00708132 0.0229878 0.0208166 0.00542719 0.028198 0.0222309 0.00126138 0.0260679 0.0222499 
0.0136644 0.0217461 0.0212499 0.0143212 0.0274776 0.0205 0.0135674 0.0264851 0.0205 
0.00856076 0.0227131 0.0207959 0.0152491 0.0218145 0.0205086 0.0102037 0.0245854 0.021602 
0.0150944 0.0240837 0.0212499 0.00796161 0.0262576 0.0212708 0.0100599 0.0272033 0.0209999 
0.0231235 0.0232794 0.0209882 0.0191926 0.0256049 0.02087 0.0167595 0.0229392 0.0207595 
0.0234997 0.0218206 0.020705 0.0170348 0.0241828 0.0205 0.0199119 0.0219828 0.0210418 
0.0163477 0.0229451 0.0220342 0.0212947 0.026855 0.0212618 0.0217466 0.0231971 0.0205722 
0.0165945 0.0251841 0.0205494 0.0197623 0.027852 0.0222371 0.0230409 0.0273829 0.0218563 
0.0166231 0.0220967 0.0224927 0.00175182 0.029038 0.0220815 0.00213247 0.0335356 0.0220124 
0.0005016 0.0301002 0.0205173 0.00491758 0.0312382 0.02075 0.00120948 0.0311329 0.02075 
0.00457899 0.03274 0.0207607 0.0073431 0.0295503 0.0205912 0.00632781 0.0335895 0.0205 
0.00748148 0.0326701 0.0211487 0.00979485 0.0330006 0.020584 0.0137468 0.0307674 0.0205 
0.00894119 0.0342891 0.022351 0.0127339 0.0337817 0.0205 0.00846415 0.0290955 0.0220193 
0.0106951 0.0353054 0.0205595 0.0117999 0.0295691 0.0223323 0.0160886 0.0296703 0.0205 
0.0181416 0.0341317 0.02075 0.0198294 0.0284124 0.02075 0.0173712 0.0328924 0.0205453 
0.00535554 0.0355697 0.02175 0.00782594 0.0356248 0.0213259 0.00425521 0.0384617 0.0207509 
0.00574659 0.0382797 0.0205 0.00312663 0.0389083 0.0213791 0.00394877 0.0402115 0.0211011 
0.001728 0.0355555 0.0205175 0.00053217 0.0372198 0.0205324 0.00258182 0.0371894 0.0207826 
0.000528242 0.0388997 0.0206861 0.000750694 0.0402872 0.0207697 0.00304097 0.0397586 0.0222117 
0.00537957 0.0403702 0.0205026 0.00484609 0.0415029 0.0205229 0.00742664 0.0374194 0.0208686 
0.00637378 0.041162 0.0207751 0.00811211 0.0392188 0.02075 0.0114631 0.0405914 0.0205 
0.0153333 0.038623 0.0205 0.0131125 0.0385903 0.0205 0.0143309 0.038358 0.0205059 
0.0102591 0.037297 0.0210077 0.0122576 0.0366152 0.0207728 0.00882772 0.0371019 0.0214195 
0.0153261 0.0397843 0.0205287 0.0165672 0.0389026 0.0205 0.0177348 0.0392258 0.0205 
0.0234997 0.0398103 0.0205 0.0224698 0.0412571 0.0214999 0.0233896 0.0380856 0.0205191 
0.0173559 0.0382508 0.0222413 0.0022215 0.0429902 0.0224538 0.00252663 0.0467029 0.0224455 
0.00353191 0.0442913 0.0205 0.00539568 0.0433303 0.0217627 0.00113122 0.0472657 0.0210704 
0.00344153 0.0452893 0.0205005 0.00356602 0.0469129 0.0207626 0.000517599 0.0485727 0.0205161 
0.00599847 0.045554 0.0207562 0.00616767 0.0471193 0.0218461 0.000655198 0.0495888 0.0206113 
0.00736838 0.0454604 0.0219098 0.00780254 0.0471359 0.0220431 0.0112993 0.0427164 0.0220106 
0.00903565 0.0483687 0.02075 0.00948204 0.0458836 0.0205 0.0109834 0.0454169 0.0205 
0.0112121 0.0490904 0.0217499 0.00992102 0.047038 0.02075 0.0145059 0.0456353 0.0222647 
0.0104494 0.046265 0.0218205 0.015013 0.0485859 0.021 0.0168485 0.042742 0.0214999 
0.019862 0.044444 0.02166 0.0167061 0.0494696 0.0214403 0.0170337 0.0461309 0.0204998 
0.0208647 0.0455535 0.0207501 0.0213427 0.0478348 0.0214999 0.0180456 0.047343 0.0212499 
0.022927 0.045236 0.0208882 0.0167287 0.0483703 0.0205208 0.0195739 0.0453959 0.0205153 
0.00285898 0.0497548 0.0222496 0.000513012 0.0510456 0.0205005 0.00118221 0.0520419 0.020987 
0.00100076 0.0535322 0.0210029 0.000793311 0.0555796 0.0205985 0.000573617 0.0566778 0.0206024 
0.00291542 0.052935 0.0209999 0.00523269 0.0564731 0.0205 0.00192054 0.054642 0.0205075 
0.00762138 0.0499519 0.0214999 0.00576944 0.0505207 0.0205 0.00400509 0.055264 0.0220716 
0.00691161 0.054315 0.0212499 0.0045544 0.0521374 0.0222679 0.00574164 0.0507239 0.022024 
0.0095194 0.0504652 0.0205 0.0159016 0.0527675 0.0209442 0.0159116 0.0536723 0.0205034 
0.0129423 0.054952 0.0205 0.0105436 0.0549821 0.022102 0.0130685 0.0556483 0.0216099 
0.0110235 0.0523232 0.0217946 0.0212542 0.0500165 0.0206365 0.0235 0.0508922 0.0205 
0.0171481 0.0518892 0.0221748 0.01925 0.0501817 0.0214999 0.0223 0.0516618 0.0210004 
0.0231987 0.0540285 0.02075 0.0205547 0.0515007 0.0205 0.023498 0.0552241 0.0205 
0.0198569 0.0559799 0.0212499 0.023493 0.0567885 0.0205 0.0227232 0.0560214 0.020507 
0.0196261 0.054349 0.0205 0.0182446 0.0520511 0.0207499 0.0210066 0.0532708 0.021665 
0.0164402 0.0552539 0.0222494 0.00106936 0.0570268 0.0219996 0.00165741 0.058041 0.0205 
0.000588955 0.0577904 0.0205 0.00104187 0.0584099 0.0211995 0.00250867 0.058001 0.0217658 
0.000973372 0.060542 0.0207992 0.00053934 0.0616934 0.0205347 0.00593316 0.0639711 0.0205386 
0.00410085 0.0590872 0.0209999 0.00605613 0.0617815 0.0210694 0.00704669 0.0578276 0.0221963 
0.00810996 0.0637874 0.0215021 0.0082665 0.0592793 0.0216087 0.00894805 0.0603568 0.02075 
0.0126244 0.0568099 0.021777 0.00936928 0.0568829 0.0205 0.0113183 0.0618235 0.0209967 
0.011983 0.058063 0.0209024 0.0139136 0.0573722 0.0210256 0.0114363 0.0591173 0.0205006 
0.0095716 0.0615954 0.0205185 0.0105136 0.062802 0.0214383 0.0155331 0.0632416 0.02175 
0.00881481 0.0612985 0.0225096 0.0164524 0.0598533 0.0217499 0.0171898 0.062373 0.0205001 
0.0233798 0.0571914 0.0214657 0.0179525 0.0568155 0.02075 0.0215277 0.0580301 0.0212499 
[...]
POINT_DATA 929
FIELD FieldData 7
id 1 929 int
324 100 291 561 368 784 32 153 241 
815 588 448 228 300 490 442 710 199 
395 474 282 590 176 364 289 362 370 
783 51 233 217 501 636 89 171 155 
870 549 126 307 178 161 159 204 219 
108 333 142 200 340 452 518 185 61 
66 31 123 192 273 274 360 64 380 
527 75 256 154 98 722 121 427 13 
390 35 879 137 275 581 46 80 556 
342 287 209 714 865 756 318 891 686 
311 190 319 57 143 6 113 293 735 
308 49 146 109 10 578 139 44 439 
174 737 713 646 820 323 872 611 110 
62 252 43 709 260 772 800 741 450 
59 592 591 465 71 189 78 231 330 
41 697 350 719 130 272 279 648 874 
896 678 70 482 12 162 529 508 700 
1 180 600 118 152 780 695 345 221 
198 269 54 42 512 582 628 400 566 
523 557 238 717 862 909 747 36 249 
259 534 522 672 624 348 831 505 261 
844 886 904 138 919 353 640 698 609 
60 91 451 433 386 423 535 366 680 
519 579 762 668 855 247 814 347 405 
328 309 514 641 626 615 242 268 394 
326 650 304 471 145 551 3 402 122 
354 265 525 712 608 567 495 424 453 
496 40 335 367 533 403 371 467 305 
739 776 410 485 168 499 804 133 769 
487 357 331 378 244 165 94 379 421 
705 230 446 24 361 771 88 8 653 
711 750 11 903 702 415 431 573 73 
112 470 445 48 186 222 258 785 661 
884 381 264 105 7 694 226 332 140 
619 667 894 103 254 373 692 147 344 
81 414 493 703 696 26 540 455 129 
67 306 45 179 84 157 271 313 255 
469 38 477 411 263 86 76 299 243 
629 167 187 736 745 183 651 325 102 
779 104 355 18 456 478 191 225 39 
239 117 679 645 14 351 20 210 149 
69 443 101 565 560 22 184 720 744 
29 644 132 513 56 197 215 53 422 
473 182 302 82 288 87 125 79 195 
435 498 173 277 206 563 605 664 407 
398 235 408 404 376 257 134 418 358 
52 141 163 9 329 93 481 234 655 
85 253 312 606 458 656 746 763 684 
596 388 466 151 28 599 320 509 156 
816 392 858 598 730 148 25 220 170 
34 507 524 16 15 676 515 572 663 
845 97 864 868 895 774 213 577 544 
613 459 164 160 17 92 202 136 322 
2 281 5 604 290 106 211 724 47 
115 365 372 334 77 693 652 631 798 
486 447 208 237 488 625 175 463 842 
503 887 569 571 677 764 369 810 893 
30 723 691 542 33 419 432 538 172 
659 725 90 585 794 826 853 910 850 
401 436 399 296 587 19 548 888 406 
911 583 286 494 188 701 673 657 715 
734 786 789 833 212 890 120 758 801 
812 837 839 898 908 917 576 550 688 
223 245 742 782 824 731 472 476 633 
881 748 647 823 832 836 685 662 718 
627 838 617 343 915 726 536 492 500 
623 639 759 770 813 841 787 594 144 
425 916 337 315 338 483 430 479 412 
638 521 554 409 749 597 877 457 897 
196 285 752 504 861 875 374 889 675 
553 416 384 876 900 902 236 740 543 
99 316 375 462 506 545 669 765 607 
809 570 733 584 802 835 775 883 901 
912 602 847 848 856 878 892 382 603 
55 620 822 278 704 537 547 397 37 
428 682 788 807 852 866 754 811 828 
441 621 674 799 885 426 670 124 687 
526 517 74 738 531 777 797 520 859 
880 489 766 444 95 276 665 251 510 
637 193 681 475 781 194 437 767 840 
528 791 899 773 792 729 349 580 201 
454 658 821 654 341 867 907 768 346 
227 327 303 649 671 689 690 728 753 
562 803 808 829 846 857 863 913 614 
634 218 601 116 314 708 727 356 806 
854 267 555 502 574 396 760 491 530 
706 595 618 438 413 632 721 352 778 
593 716 834 860 642 181 484 301 564 
150 707 610 480 250 461 793 851 882 
914 383 532 558 270 417 96 205 216 
660 295 795 796 843 849 869 906 643 
612 817 511 589 790 818 830 683 699 
586 158 616 575 321 131 541 440 871 
873 827 905 819 232 761 107 363 732 
757 4 229 284 203 50 283 468 539 
559 568 128 434 666 119 635 207 114 
127 393 630 464 497 359 72 387 546 
214 65 262 622 420 292 23 298 805 
825 516 918 552 248 317 377 83 63 
743 68 755 266 135 385 169 246 336 
339 224 280 429 449 297 111 58 177 
294 310 240 389 21 27 166 391 460 
751 920 921 922 923 924 925 926 927 
928 929 
type 1 929 int
1 1 1 1 1 1 1 1 1 
1 1 1 1 1 1 1 1 1 
1 1 1 1 1 1 1 1 1 
1 1 1 1 1 1 1 1 1 
1 1 1 1 1 1 1 1 1 
1 1 1 1 1 1 1 1 1 
1 1 1 1 1 1 1 1 1 
1 1 1 1 1 1 1 1 1 
1 1 1 1 1 1 1 1 1 
1 1 1 1 1 1 1 1 1 
1 1 1 1 1 1 1 1 1 
1 1 1 1 1 1 1 1 1 
1 1 1 1 1 1 1 1 1 
1 1 1 1 1 1 1 1 1 
1 1 1 1 1 1 1 1 1 
1 1 1 1 1 1 1 1 1 
1 1 1 1 1 1 1 1 1 
1 1 1 1 1 1 1 1 1 
1 1 1 1 1 1 1 1 1 
1 1 1 1 1 1 1 1 1 
1 1 1 1 1 1 1 1 1 
1 1 1 1 1 1 1 1 1 
1 1 1 1 1 1 1 1 1 
1 1 1 1 1 1 1 1 1 
1 1 1 1 1 1 1 1 1 
1 1 1 1 1 1 1 1 1 
1 1 1 1 1 1 1 1 1 
1 1 1 1 1 1 1 1 1 
1 1 1 1 1 1 1 1 1 
1 1 1 1 1 1 1 1 1 
1 1 1 1 1 1 1 1 1 
1 1 1 1 1 1 1 1 1 
1 1 1 1 1 1 1 1 1 
1 1 1 1 1 1 1 1 1 
1 1 1 1 1 1 1 1 1 
1 1 1 1 1 1 1 1 1 
1 1 1 1 1 1 1 1 1 
1 1 1 1 1 1 1 1 1 
1 1 1 1 1 1 1 1 1 
1 1 1 1 1 1 1 1 1 
1 1 1 1 1 1 1 1 1 
1 1 1 1 1 1 1 1 1 
1 1 1 1 1 1 1 1 1 
1 1 1 1 1 1 1 1 1 
1 1 1 1 1 1 1 1 1 
1 1 1 1 1 1 1 1 1 
1 1 1 1 1 1 1 1 1 
1 1 1 1 1 1 1 1 1 
1 1 1 1 1 1 1 1 1 
1 1 1 1 1 1 1 1 1 
1 1 1 1 1 1 1 1 1 
1 1 1 1 1 1 1 1 1 
1 1 1 1 1 1 1 1 1 
1 1 1 1 1 1 1 1 1 
1 1 1 1 1 1 1 1 1 
1 1 1 1 1 1 1 1 1 
1 1 1 1 1 1 1 1 1 
1 1 1 1 1 1 1 1 1 
1 1 1 1 1 1 1 1 1 
1 1 1 1 1 1 1 1 1 
1 1 1 1 1 1 1 1 1 
1 1 1 1 1 1 1 1 1 
1 1 1 1 1 1 1 1 1 
1 1 1 1 1 1 1 1 1 
1 1 1 1 1 1 1 1 1 
1 1 1 1 1 1 1 1 1 
1 1 1 1 1 1 1 1 1 
1 1 1 1 1 1 1 1 1 
1 1 1 1 1 1 1 1 1 
1 1 1 1 1 1 1 1 1 
1 1 1 1 1 1 1 1 1 
1 1 1 1 1 1 1 1 1 
1 1 1 1 1 1 1 1 1 
1 1 1 1 1 1 1 1 1 
1 1 1 1 1 1 1 1 1 
1 1 1 1 1 1 1 1 1 
1 1 1 1 1 1 1 1 1 
1 1 1 1 1 1 1 1 1 
1 1 1 1 1 1 1 1 1 
1 1 1 1 1 1 1 1 1 
1 1 1 1 1 1 1 1 1 
1 1 1 1 1 1 1 1 1 
1 1 1 1 1 1 1 1 1 
1 1 1 1 1 1 1 1 1 
1 1 1 1 1 1 1 1 1 
1 1 1 1 1 1 1 1 1 
1 1 1 1 1 1 1 1 1 
1 1 1 1 1 1 1 1 1 
1 1 1 1 1 1 1 1 1 
1 1 1 1 1 1 1 1 1 
1 1 1 1 1 1 1 1 1 
1 1 1 1 1 1 1 1 1 
1 1 1 1 1 1 1 1 1 
1 1 1 1 1 1 1 1 1 
1 1 1 1 1 1 1 1 1 
1 1 1 1 1 1 1 1 1 
1 1 1 1 1 1 1 1 1 
1 1 1 1 1 1 1 1 1 
1 1 1 1 1 1 1 1 1 
1 1 1 1 1 1 1 1 1 
1 1 1 1 1 1 1 1 1 
1 1 1 1 1 1 1 1 1 
1 1 1 1 1 1 1 1 1 
1 1 
i 3 929 int
0 0 0 0 0 0 0 0 0 
0 0 0 0 0 0 0 0 0 
0 0 0 0 0 0 0 0 0 
0 0 0 0 0 0 0 0 0 
0 0 0 0 0 0 0 0 0 
0 0 0 0 0 0 0 0 0 
0 0 0 0 0 0 0 0 0 
0 0 0 0 0 0 0 0 0 
0 0 0 0 0 0 0 0 0 
0 0 0 0 0 0 0 0 0 
0 0 0 0 0 0 0 0 0 
0 0 0 0 0 0 0 0 0 
0 0 0 0 0 0 0 0 0 
0 0 0 0 0 0 0 0 0 
0 0 0 0 0 0 0 0 0 
0 0 0 0 0 0 0 0 0 
0 0 0 0 0 0 0 0 0 
0 0 0 0 0 0 0 0 0 
0 0 0 0 0 0 0 0 0 
0 0 0 0 0 0 0 0 0 
0 0 0 0 0 0 0 0 0 
0 0 0 0 0 0 0 0 0 
0 0 0 0 0 0 0 0 0 
0 0 0 0 0 0 0 0 0 
0 0 0 0 0 0 0 0 0 
0 0 0 0 0 0 0 0 0 
0 0 0 0 0 0 0 0 0 
0 0 0 0 0 0 0 0 0 
0 0 0 0 0 0 0 0 0 
0 0 0 0 0 0 0 0 0 
0 0 0 0 0 0 0 0 0 
0 0 0 0 0 0 0 0 0 
0 0 0 0 0 0 0 0 0 
0 0 0 0 0 0 0 0 0 
0 0 0 0 0 0 0 0 0 
0 0 0 0 0 0 0 0 0 
0 0 0 0 0 0 0 0 0 
0 0 0 0 0 0 0 0 0 
0 0 0 0 0 0 0 0 0 
0 0 0 0 0 0 0 0 0 
0 0 0 0 0 0 0 0 0 
0 0 0 0 0 0 0 0 0 
0 0 0 0 0 0 0 0 0 
0 0 0 0 0 0 0 0 0 
0 0 0 0 0 0 0 0 0 
0 0 0 0 0 0 0 0 0 
0 0 0 0 0 0 0 0 0 
0 0 0 0 0 0 0 0 0 
0 0 0 0 0 0 0 0 0 
0 0 0 0 0 0 0 0 0 
0 0 0 0 0 0 0 0 0 
0 0 0 0 0 0 0 0 0 
0 0 0 0 0 0 0 0 0 
0 0 0 0 0 0 0 0 0 
0 0 0 0 0 0 0 0 0 
0 0 0 0 0 0 0 0 0 
0 0 0 0 0 0 0 0 0 
0 0 0 0 0 0 0 0 0 
0 0 0 0 0 0 0 0 0 
0 0 0 0 0 0 0 0 0 
0 0 0 0 0 0 0 0 0 
0 0 0 0 0 0 0 0 0 
0 0 0 0 0 0 0 0 0 
0 0 0 0 0 0 0 0 0 
0 0 0 0 0 0 0 0 0 
0 0 0 0 0 0 0 0 0 
0 0 0 0 0 0 0 0 0 
0 0 0 0 0 0 0 0 0 
0 0 0 0 0 0 0 0 0 
0 0 0 0 0 0 0 0 0 
0 0 0 0 0 0 0 0 0 
0 0 0 0 0 0 0 0 0 
0 0 0 0 0 0 0 0 0 
0 0 0 0 0 0 0 0 0 
0 0 0 0 0 0 0 0 0 
0 0 0 0 0 0 0 0 0 
0 0 0 0 0 0 0 0 0 
0 0 0 0 0 0 0 0 0 
0 0 0 0 0 0 0 0 0 
0 0 0 0 0 0 0 0 0 
0 0 0 0 0 0 0 0 0 
0 0 0 0 0 0 0 0 0 
0 0 0 0 0 0 0 0 0 
0 0 0 0 0 0 0 0 0 
0 0 0 0 0 0 0 0 0 
0 0 0 0 0 0 0 0 0 
0 0 0 0 0 0 0 0 0 
0 0 0 0 0 0 0 0 0 
0 0 0 0 0 0 0 0 0 
0 0 0 0 0 0 0 0 0 
0 0 0 0 0 0 0 0 0 
0 0 0 0 0 0 0 0 0 
0 0 0 0 0 0 0 0 0 
0 0 0 0 0 0 0 0 0 
0 0 0 0 0 0 0 0 0 
0 0 0 0 0 0 0 0 0 
0 0 0 0 0 0 0 0 0 
0 0 0 0 0 0 0 0 0 
0 0 0 0 0 0 0 0 0 
0 0 0 0 0 0 0 0 0 
0 0 0 0 0 0 0 0 0 
0 0 0 0 0 0 0 0 0 
0 0 0 0 0 0 0 0 0 
0 0 0 0 0 0 0 0 0 
0 0 0 0 0 0 0 0 0 
0 0 0 0 0 0 0 0 0 
0 0 0 0 0 0 0 0 0 
0 0 0 0 0 0 0 0 0 
0 0 0 0 0 0 0 0 0 
0 0 0 0 0 0 0 0 0 
0 0 0 0 0 0 0 0 0 
0 0 0 0 0 0 0 0 0 
0 0 0 0 0 0 0 0 0 
0 0 0 0 0 0 0 0 0 
0 0 0 0 0 0 0 0 0 
0 0 0 0 0 0 0 0 0 
0 0 0 0 0 0 0 0 0 
0 0 0 0 0 0 0 0 0 
0 0 0 0 0 0 0 0 0 
0 0 0 0 0 0 0 0 0 
0 0 0 0 0 0 0 0 0 
0 0 0 0 0 0 0 0 0 
0 0 0 0 0 0 0 0 0 
0 0 0 0 0 0 0 0 0 
0 0 0 0 0 0 0 0 0 
0 0 0 0 0 0 0 0 0 
0 0 0 0 0 0 0 0 0 
0 0 0 0 0 0 0 0 0 
0 0 0 0 0 0 0 0 0 
0 0 0 0 0 0 0 0 0 
0 0 0 0 0 0 0 0 0 
0 0 0 0 0 0 0 0 0 
0 0 0 0 0 0 0 0 0 
0 0 0 0 0 0 0 0 0 
0 0 0 0 0 0 0 0 0 
0 0 0 0 0 0 0 0 0 
0 0 0 0 0 0 0 0 0 
0 0 0 0 0 0 0 0 0 
0 0 0 0 0 0 0 0 0 
0 0 0 0 0 0 0 0 0 
0 0 0 0 0 0 0 0 0 
0 0 0 0 0 0 0 0 0 
0 0 0 0 0 0 0 0 0 
0 0 0 0 0 0 0 0 0 
0 0 0 0 0 0 0 0 0 
0 0 0 0 0 0 0 0 0 
0 0 0 0 0 0 0 0 0 
0 0 0 0 0 0 0 0 0 
0 0 0 0 0 0 0 0 0 
0 0 0 0 0 0 0 0 0 
0 0 0 0 0 0 0 0 0 
0 0 0 0 0 0 0 0 0 
0 0 0 0 0 0 0 0 0 
0 0 0 0 0 0 0 0 0 
0 0 0 0 0 0 0 0 0 
0 0 0 0 0 0 0 0 0 
0 0 0 0 0 0 0 0 0 
0 0 0 0 0 0 0 0 0 
0 0 0 0 0 0 0 0 0 
0 0 0 0 0 0 0 0 0 
0 0 0 0 0 0 0 0 0 
0 0 0 0 0 0 0 0 0 
0 0 0 0 0 0 0 0 0 
0 0 0 0 0 0 0 0 0 
0 0 0 0 0 0 0 0 0 
0 0 0 0 0 0 0 0 0 
0 0 0 0 0 0 0 0 0 
0 0 0 0 0 0 0 0 0 
0 0 0 0 0 0 0 0 0 
0 0 0 0 0 0 0 0 0 
0 0 0 0 0 0 0 0 0 
0 0 0 0 0 0 0 0 0 
0 0 0 0 0 0 0 0 0 
0 0 0 0 0 0 0 0 0 
0 0 0 0 0 0 0 0 0 
0 0 0 0 0 0 0 0 0 
0 0 0 0 0 0 0 0 0 
0 0 0 0 0 0 0 0 0 
0 0 0 0 0 0 0 0 0 
0 0 0 0 0 0 0 0 0 
0 0 0 0 0 0 0 0 0 
0 0 0 0 0 0 0 0 0 
0 0 0 0 0 0 0 0 0 
0 0 0 0 0 0 0 0 0 
0 0 0 0 0 0 0 0 0 
0 0 0 0 0 0 0 0 0 
0 0 0 0 0 0 0 0 0 
0 0 0 0 0 0 0 0 0 
0 0 0 0 0 0 0 0 0 
0 0 0 0 0 0 0 0 0 
0 0 0 0 0 0 0 0 0 
0 0 0 0 0 0 0 0 0 
0 0 0 0 0 0 0 0 0 
0 0 0 0 0 0 0 0 0 
0 0 0 0 0 0 0 0 0 
0 0 0 0 0 0 0 0 0 
0 0 0 0 0 0 0 0 0 
0 0 0 0 0 0 0 0 0 
0 0 0 0 0 0 0 0 0 
0 0 0 0 0 0 0 0 0 
0 0 0 0 0 0 0 0 0 
0 0 0 0 0 0 0 0 0 
0 0 0 0 0 0 0 0 0 
0 0 0 0 0 0 0 0 0 
0 0 0 0 0 0 0 0 0 
0 0 0 0 0 0 0 0 0 
0 0 0 0 0 0 0 0 0 
0 0 0 0 0 0 0 0 0 
0 0 0 0 0 0 0 0 0 
0 0 0 0 0 0 0 0 0 
0 0 0 0 0 0 0 0 0 
0 0 0 0 0 0 0 0 0 
0 0 0 0 0 0 0 0 0 
0 0 0 0 0 0 0 0 0 
0 0 0 0 0 0 0 0 0 
0 0 0 0 0 0 0 0 0 
0 0 0 0 0 0 0 0 0 
0 0 0 0 0 0 0 0 0 
0 0 0 0 0 0 0 0 0 
0 0 0 0 0 0 0 0 0 
0 0 0 0 0 0 0 0 0 
0 0 0 0 0 0 0 0 0 
0 0 0 0 0 0 0 0 0 
0 0 0 0 0 0 0 0 0 
0 0 0 0 0 0 0 0 0 
0 0 0 0 0 0 0 0 0 
0 0 0 0 0 0 0 0 0 
0 0 0 0 0 0 0 0 0 
0 0 0 0 0 0 0 0 0 
0 0 0 0 0 0 0 0 0 
0 0 0 0 0 0 0 0 0 
0 0 0 0 0 0 0 0 0 
0 0 0 0 0 0 0 0 0 
0 0 0 0 0 0 0 0 0 
0 0 0 0 0 0 0 0 0 
0 0 0 0 0 0 0 0 0 
0 0 0 0 0 0 0 0 0 
0 0 0 0 0 0 0 0 0 
0 0 0 0 0 0 0 0 0 
0 0 0 0 0 0 0 0 0 
0 0 0 0 0 0 0 0 0 
0 0 0 0 0 0 0 0 0 
0 0 0 0 0 0 0 0 0 
0 0 0 0 0 0 0 0 0 
0 0 0 0 0 0 0 0 0 
0 0 0 0 0 0 0 0 0 
0 0 0 0 0 0 0 0 0 
0 0 0 0 0 0 0 0 0 
0 0 0 0 0 0 0 0 0 
0 0 0 0 0 0 0 0 0 
0 0 0 0 0 0 0 0 0 
0 0 0 0 0 0 0 0 0 
0 0 0 0 0 0 0 0 0 
0 0 0 0 0 0 0 0 0 
0 0 0 0 0 0 0 0 0 
0 0 0 0 0 0 0 0 0 
0 0 0 0 0 0 0 0 0 
0 0 0 0 0 0 0 0 0 
0 0 0 0 0 0 0 0 0 
0 0 0 0 0 0 0 0 0 
0 0 0 0 0 0 0 0 0 
0 0 0 0 0 0 0 0 0 
0 0 0 0 0 0 0 0 0 
0 0 0 0 0 0 0 0 0 
0 0 0 0 0 0 0 0 0 
0 0 0 0 0 0 0 0 0 
0 0 0 0 0 0 0 0 0 
0 0 0 0 0 0 0 0 0 
0 0 0 0 0 0 0 0 0 
0 0 0 0 0 0 0 0 0 
0 0 0 0 0 0 0 0 0 
0 0 0 0 0 0 0 0 0 
0 0 0 0 0 0 0 0 0 
0 0 0 0 0 0 0 0 0 
0 0 0 0 0 0 0 0 0 
0 0 0 0 0 0 0 0 0 
0 0 0 0 0 0 0 0 0 
0 0 0 0 0 0 0 0 0 
0 0 0 0 0 0 0 0 0 
0 0 0 0 0 0 0 0 0 
0 0 0 0 0 0 0 0 0 
0 0 0 0 0 0 0 0 0 
0 0 0 0 0 0 0 0 0 
0 0 0 0 0 0 0 0 0 
0 0 0 0 0 0 0 0 0 
0 0 0 0 0 0 0 0 0 
0 0 0 0 0 0 0 0 0 
0 0 0 0 0 0 0 0 0 
0 0 0 0 0 0 0 0 0 
0 0 0 0 0 0 0 0 0 
0 0 0 0 0 0 0 0 0 
0 0 0 0 0 0 0 0 0 
0 0 0 0 0 0 0 0 0 
0 0 0 0 0 0 0 0 0 
0 0 0 0 0 0 0 0 0 
0 0 0 0 0 0 0 0 0 
0 0 0 0 0 0 0 0 0 
0 0 0 0 0 0 0 0 0 
0 0 0 0 0 0 0 0 0 
0 0 0 0 0 0 0 0 0 
0 0 0 0 0 0 0 0 0 
0 0 0 0 0 0 0 0 0 
0 0 0 0 0 0 0 0 0 
0 0 0 0 0 0 0 0 0 
0 0 0 0 0 0 0 0 0 
0 0 0 0 0 0 0 0 0 
0 0 0 0 0 0 0 0 0 
0 0 0 0 0 0 0 0 0 
0 0 0 0 0 0 0 0 0 
0 0 0 0 0 0 
v 3 929 double
0.473173 -0.651589 0.00353386 -1.1544 0.606415 1.59737 -0.51159 -0.209192 -0.000351078 
-0.730989 -1.33356 -0.549438 -1.61441 -6.39326 0.0535734 0.741815 0.206798 -1.41626 
-0.258978 -3.91435 -1.25721e-06 1.13362 -7.15832 1.24159 0.885162 0.328304 0.155063 
-0.597425 -0.492465 -1.01391 -0.660345 0.392705 1.04598e-11 -1.38746 -1.52078 3.33752e-11 
0.139821 -0.0523323 -0.0217868 -1.49793 0.0164669 -2.27104 2.38039 -1.42079 1.53696 
0.305663 -2.82069 0.0604524 -0.545149 -2.59036 0.0428792 4.50029 1.75543 -0.2163 
0.328814 0.539128 -0.000240247 1.07703 0.000846805 3.37307e-05 1.07264 -0.80743 -0.747255 
1.31739 0.0317541 -0.123842 0.775397 0.00268261 -0.367731 1.03163 1.54641 0.632941 
-1.07028 -2.26013 -2.8038e-11 2.43086 0.408267 1.34535 -0.347355 -4.00928 0.0229137 
0 0 -0.880913 -0.612511 -1.74655 6.79338e-12 -0.119579 -4.08957 0.0695736 
4.05375 -3.01058 -3.03663e-11 0.00141529 -2.9806 2.32745 -3.05715 -2.39752 0.00230153 
0.562002 -3.59871 1.49423 -2.87108 -1.06328 -0.333338 -1.76684 -0.196549 0.923358 
0 0 -0.336458 -1.06423 -3.13499 -1.50953 -2.61979 -0.928307 0.0552323 
-0.0612655 -2.40107 2.42091e-11 -2.26468 -1.50101 0.0348615 -0.0118948 0.00598182 0.0228395 
0.0170148 -0.160897 0.000401524 0.136313 0.0579229 0.00526311 -0.0538069 -0.228277 0.0556236 
-1.60782 -1.23957 0.0598597 0.624542 0.639183 0.458909 -0.0189456 0.0638789 -0.0108736 
0.0412582 -0.38471 0.150132 -0.155424 0.0937632 0.000586349 -0.088457 0.121777 -0.0773743 
1.11446 0.205417 0.436588 -0.886354 -0.703369 -9.13905e-06 -1.26295 -0.876475 -1.24289 
-1.5048 -1.02474 -2.04581 -0.516638 -0.163914 -0.497998 0.328324 0.0198424 0.138657 
-0.848046 -2.95589 0.0566971 0.587537 0.144664 -0.599147 -0.1867 -1.33246 -1.24555e-11 
0.408968 -0.502304 2.60423e-11 -0.311014 -0.959261 -1.01454 -0.623947 -1.04375 -3.07878e-11 
-3.47198 -2.38816 -0.00499125 -0.622579 -1.12348 0.00011689 0.000948356 -1.91176 -0.422707 
0.507337 -0.131252 0.601555 -0.273476 -0.82315 -0.376196 -3.10666 -1.77802 0.625252 
-0.0757997 -2.41117 -5.12261e-12 -0.358905 -1.16169 0.0536153 -1.19851 -1.11963 -0.000230915 
0.0623452 -1.18351 -0.54785 0.546156 -1.15901 -0.0301923 0 0 -0.281032 
0.0272169 -0.829414 -3.33421e-05 2.35958 -0.0433733 0.225589 4.49296 -3.67986 -0.463408 
1.75539 0.344083 0.111689 0.441801 -0.572638 0.0571029 3.09787 0.588092 0.000109505 
3.10749 0.0197966 0.141358 1.84803 -0.248197 -2.71205e-11 -0.986357 -3.72011 0.0299849 
2.55037 4.71159 -0.672557 1.79191 -1.00978 -1.26503 2.88881 -1.08633 -0.493023 
0.208769 0.0627671 -0.570987 -1.60008 1.23872 0.038018 0 0 -1.32359 
-1.92562 -1.71278 -0.912224 -0.907201 -1.6106 0.0885735 -0.171734 -0.917721 2.26213e-11 
-0.816292 0.346916 0.28097 -0.219222 0.29827 -0.451393 0.0501666 0.1683 0.343261 
-1.31783 -4.37715 0.255026 0.289904 0.27626 0.00720552 8.36549e-06 3.10929 1.62877 
-1.04581 -0.38084 0.0281206 -0.934577 -1.54914 0.0508205 -0.275907 -2.45497 -0.43678 
-0.644963 -2.92316 -1.82422 1.83323 -1.99275 -0.325751 0.5454 -1.55886 0.126251 
-1.68792 -1.44044 -1.35933 0.865519 -0.522036 -0.00252104 0.507847 -0.268668 0.00215195 
-0.359433 -0.323353 -2.49677e-05 -1.59029 -1.37432 -2.4342 -1.91837 -2.41056 -0.025358 
-1.91332 -0.0885112 -1.87236 0.0172415 -1.20432 1.59595e-11 -0.13011 -0.481463 -0.121528 
0 0 -0.320027 -0.78223 -9.84026 0.217913 2.02985 0.811461 7.96504e-09 
0.664355 -0.303341 0.00053878 -0.0748543 -2.25551 -8.78907e-12 1.15775 -1.59069 -1.29614e-08 
0 0 -2.56437e-11 1.01556 -2.26048 -5.68716e-07 1.51167 2.61922 -2.5137 
1.2869 -2.82152 0.105384 0 0 -1.07809 3.74278 2.46607 -1.71565 
0.753411 -0.182465 -1.47482 1.46407 -1.57399 -0.0279338 -0.92258 -0.0353672 -0.188033 
-0.859636 2.12252 0.347353 4.65787 -1.41629 2.05426e-11 -3.11842 -4.40786 0.052041 
0.782023 -0.913581 -3.10994e-05 -0.0451662 -1.27334 -0.00217365 -1.04302 -1.85337 0.240317 
-0.837211 -2.08421 0.0303241 -2.82459 -2.07961 -0.879087 -1.54791 -2.27235 0.0108995 
0 0 -1.14922 -4.01262 -16.0471 1.69463 -0.0241982 -7.96848 2.33013e-07 
-0.130641 -15.2332 2.30387 -1.6334 -9.63147 1.93427 0.000908262 0.00544746 -0.378364 
7.13141 11.3858 0.810809 -1.91969 -1.04741 0.278425 0.432288 -0.95033 -3.07878e-11 
-1.13395 0.169963 7.70999e-12 0.0420268 -1.19978 -0.293885 0.330053 -2.15906 -0.297916 
-1.66304 -2.37685 0.0455868 -3.2322 -1.34597 -1.16603 -0.867777 0.50831 1.38814 
-1.57582 -1.96339 -0.787072 -0.37067 -1.45917 0.770228 0.274796 0.788775 -2.55826 
1.55952 -0.921079 8.66592e-12 -0.198048 -0.532709 2.42091e-11 -0.384092 -0.833657 -2.8038e-11 
-1.44652 -3.48549 0.258047 -1.24539 -7.2819 -0.260412 -1.88164 -7.1917 -2.78078 
-2.0615 -5.91665 2.1042e-11 -2.86405 -6.6293 0.127565 -2.74773 -5.84 3.29207e-07 
-0.295074 -4.46924 0.339785 1.62699 0.0256978 -0.12748 -0.0652073 -1.25128 -0.0117798 
-0.00309176 -0.0268239 0.472183 -0.231488 -0.796536 0.000785978 1.29552 -0.193534 -0.124213 
-0.860186 -0.702143 -0.268239 2.63526 2.7876 -0.0772334 -0.300495 -1.80817 0.0674208 
-4.84251 -7.19612 0.363492 0 0 -0.417391 0 0 -0.123581 
1.00955 -0.0854789 0.514584 -0.077464 1.46277 0.581122 0.609166 -0.0143912 -0.0140417 
0.0154854 -0.566678 -0.0216456 -1.42983 -0.721075 1.07288e-08 0.670855 -0.82709 -0.000172866 
1.06016 0.453584 0.0957765 0.716698 -2.75233 0.0564235 -3.06881 -2.43846 -0.0776698 
-2.03289 -1.80557 0.0847822 -0.276361 -1.16856 -0.935635 -1.99825 -1.92686 1.04598e-11 
0 0 -0.521377 0 0 7.59752e-10 0 0 -0.1562 
0.162441 -2.95433 0.0195307 0 0 -0.05344 -0.85988 -3.18741 -1.33721e-11 
-1.05096 0.260032 4.43107e-12 0 0 2.53526e-11 -0.890353 -0.404335 -4.28411 
-0.00023304 1.29255 -0.0138243 -1.24121 1.81948 1.51872 -1.31663 0.992448 -0.0296005 
-2.61596 2.8298 2.14592e-11 -4.10812 4.94581 -2.87723 -2.22048 1.3896 0.357846 
-2.31544 -3.00825 -0.0158549 0.29708 -0.439342 0.231506 -0.101735 1.69932 -3.49425 
0.0446731 0.633069 -0.224724 0.169901 0.205229 0.579388 -3.49068 4.27858 0.933758 
-2.20877 -1.15265 -3.45242 -2.05237 2.937 0.19785 -2.73998 2.38609 -0.361251 
-2.84634 0.402131 -0.963455 -0.0540782 3.32599 1.03153e-11 0.502583 6.29811 3.77077e-13 
-1.33915 -1.95529 -6.83497e-10 -0.647309 0.0932517 -2.16217e-11 0.0567807 0.444224 -0.0329846 
-0.744004 0.184308 0.146352 1.07933 1.21435 0.238052 -1.23251 -0.149831 -1.34279 
-4.3713 -0.102577 -0.169047 0.354985 0.0768099 7.70999e-12 0 0 1.59595e-11 
0.00294581 -0.926624 1.50429e-11 0.00206477 -1.12145 0.00408687 -0.374316 -3.10943 0.115085 
-6.57174 -3.18003 -1.92055 -1.16615 2.89464 0.136667 -0.202646 0.995538 2.71922 
-1.04222 0.886399 0.0147298 -1.13509 1.79953 0.0958485 -0.738498 2.47335 0.113978 
0.914688 1.56066 0.0652171 2.75211 0.483709 -0.0921322 0.203978 4.19618 0.143946 
0.161787 1.51515 -0.00922458 1.55178 -3.21343 0.86906 0.282907 4.29022 0.0787784 
-1.59637 3.25377 -2.56992 -1.71636 2.00842 -3.02849 -1.00549 2.77648 0.0367044 
0.0499462 0.22597 4.11616e-06 0.1053 0.308201 3.33752e-11 0 0 -4.206e-12 
-0.234999 1.17686 0.00279826 0.370103 0.237224 1.88146e-11 0.23367 1.56839 -0.044847 
1.19096 0.0830041 -1.71775 -0.0288961 1.64059 -0.00128859 -0.194108 0.976593 2.29975e-07 
-0.234024 7.43809 2.28628 2.5724 2.06171 -2.97326 0.998426 3.72682 -0.493821 
3.59013 2.90947 0.211301 1.05042 0.94071 2.06639e-11 0.491192 1.01487 0.0321856 
0 0 -0.77423 -0.778391 0.285666 0.0147675 0.433499 5.52007 0.211654 
0.659342 1.76725 0.0252036 0.0449693 0.494788 -0.0397397 -0.638612 2.48294 -0.0190857 
0.0124584 2.59691 -0.021871 0.389198 3.02384 -0.761778 0.127484 3.32932 -0.115958 
-0.0149646 2.56354 4.70736e-08 -0.200311 3.23499 -2.8038e-11 -1.48635 4.43097 0.0383048 
0.0933982 0.289577 -8.88999e-05 0.00382245 0.788883 -1.33721e-11 -1.56282 3.8682 -0.611775 
-1.49219 1.00115 0.00392258 1.57741 2.61596 -1.5011 3.18938 1.86801 -5.37621 
-0.297349 2.46674 -0.00199133 0.929002 3.37526 0.806962 0.23493 3.13061 -0.022571 
-0.176043 -2.32231 3.77077e-13 0.545475 -3.13356 -0.523138 -0.898094 5.0332 -5.078 
0 0 -0.164293 0.825857 1.23447 -1.37765 2.31354e-07 2.57713 -3.17288e-08 
2.39428 0.332396 0.292466 0.753562 0.729305 0.00276225 -0.129571 2.62308 -0.0264959 
-0.0796639 4.19652 1.7507e-11 0.231295 1.87511 -7.96754e-12 -0.00391327 4.20058 2.69589e-11 
2.50788 -0.577004 0.000227623 -0.0071674 3.52053 2.14592e-11 -0.916107 3.91373 -0.326198 
0.0321119 -0.921897 -2.59154e-10 1.33953 1.0857 -0.00232283 -0.792969 2.32486 0.631752 