# vtk DataFile Version 4.0
Generated by LIGGGHTS
ASCII
DATASET POLYDATA
POINTS 1188 float
0.00597145 0.00438515 0.0219998 0.00230357 0.00187555 0.0214998 0.00790349 0.00265211 0.02075 
0.000587337 0.00131535 0.0205 0.00654023 0.00186159 0.0207515 0.00660527 0.000629514 0.0205 
0.0048062 0.0014718 0.0205 0.000742317 0.00297353 0.020501 0.00286314 0.00354342 0.0205104 
0.00776897 0.00530131 0.0205 0.000511544 0.000500985 0.0211175 0.00100696 0.0040631 0.021499 
0.00436324 0.00242897 0.0205009 0.00511493 0.000501908 0.0205 0.00076114 0.00515467 0.0205 
0.000501733 0.00609135 0.0207354 0.00804314 0.00678181 0.0219776 0.00762717 0.00632533 0.0205442 
0.00582682 0.00160494 0.0223869 0.00900207 0.00326683 0.0208566 0.0133386 0.00150173 0.0205 
0.0115161 0.00255722 0.0205 0.0149166 0.000775579 0.02075 0.0123733 0.00199198 0.0205 
0.0113235 0.000765107 0.0205013 0.0131685 0.000500611 0.0205609 0.0115469 0.00215845 0.022266 
0.0122973 0.00099304 0.0205 0.0103673 0.000512749 0.0206834 0.00888641 0.000763387 0.02075 
0.0104684 0.00305066 0.0206351 0.014278 0.00184339 0.0205 0.0105285 0.00178095 0.02075 
0.0112833 0.00362141 0.020502 0.0117247 0.00460692 0.0205093 0.0118982 0.00581993 0.0207912 
0.0111306 0.00308839 0.0214327 0.0131186 0.00358143 0.021513 0.00952799 0.00249167 0.0205002 
0.0114268 0.000751613 0.0217499 0.0139378 0.00509912 0.0205001 0.00895417 0.00170688 0.0216624 
0.0101466 0.00469701 0.0212882 0.0137109 0.00648668 0.021023 0.0151036 0.00545037 0.0207832 
0.0103851 0.00251773 0.0218315 0.0153547 0.004246 0.0205059 0.0156982 0.0046215 0.0215746 
0.00861306 0.00491232 0.0225547 0.015703 0.00267921 0.0212512 0.0164247 0.000752092 0.02075 
0.02325 0.000753677 0.0207499 0.0224326 0.00337653 0.0205 0.0234958 0.00347659 0.0205 
0.0214678 0.00223898 0.0209999 0.02325 0.0050155 0.0221664 0.0232464 0.00227699 0.02075 
0.0218139 0.00448934 0.02075 0.0229827 0.00542957 0.0207499 0.0235 0.00654276 0.0205002 
0.0205236 0.00369373 0.0212906 0.017814 0.00403176 0.0212499 0.018856 0.00149934 0.0214996 
0.0229851 0.00101053 0.0224605 0.0228946 0.00330216 0.0221403 0.0197779 0.00438742 0.0205 
0.0196576 0.00510532 0.0220262 0.02325 0.00651695 0.021748 0.0185426 0.00671066 0.021893 
0.0195488 0.00341328 0.0224573 0.0027025 0.00744829 0.0205 0.00594148 0.00902454 0.0205 
0.00503083 0.0120016 0.0205 0.00343337 0.00896833 0.0209999 0.00551548 0.0105025 0.0205 
0.00161917 0.00824903 0.0207647 0.00631722 0.0121674 0.0213153 0.0015079 0.0108566 0.0215004 
0.00754091 0.00818558 0.0205064 0.00368849 0.0104498 0.0205 0.000511511 0.0123325 0.0205 
0.000616675 0.00880823 0.0212565 0.00483409 0.009164 0.0205 0.000613095 0.0133281 0.0205 
0.000667489 0.0070497 0.0211136 0.000505852 0.00799299 0.0218389 0.00366717 0.010097 0.0220204 
0.00771638 0.0085038 0.0217691 0.0053012 0.0140839 0.02075 0.00692259 0.0139075 0.0222243 
0.00660458 0.0101321 0.0212434 0.00859653 0.0118286 0.0215067 0.013928 0.0104162 0.0207689 
0.0119601 0.00732151 0.02075 0.0156728 0.0103661 0.0209999 0.0131108 0.0124343 0.02075 
0.0147826 0.0122604 0.022184 0.0120487 0.0133999 0.0205014 0.014645 0.0125736 0.0206104 
0.0141374 0.011632 0.020503 0.011958 0.00959612 0.0218203 0.0133445 0.00767552 0.0222537 
0.00979451 0.00790473 0.0205 0.012749 0.0112556 0.0205032 0.0137118 0.0116151 0.0215872 
0.015151 0.0134455 0.0205009 0.0151405 0.0116764 0.0205 0.0126688 0.0124093 0.0219359 
0.00900911 0.00799096 0.0220241 0.0185307 0.00721631 0.02075 0.0215885 0.00878338 0.0204986 
0.0209624 0.00717103 0.0214997 0.0230447 0.00743315 0.0205008 0.0229947 0.00884338 0.0210149 
0.0182771 0.0109177 0.0217504 0.0207848 0.0113059 0.0217742 0.0214871 0.0101922 0.0209991 
0.0182572 0.00853353 0.0205 0.02046 0.00889503 0.0205185 0.0194158 0.00844426 0.0205 
0.0229999 0.011597 0.0210002 0.0161898 0.0126244 0.0212082 0.0201474 0.0092576 0.0217039 
0.0202495 0.0117847 0.0205 0.0188411 0.0084109 0.0218147 0.0174109 0.00907017 0.0204993 
0.0198216 0.0133192 0.0205002 0.0214399 0.0124108 0.02075 0.0232851 0.0130073 0.0205 
0.0234967 0.0104462 0.0219217 0.0219939 0.00920575 0.0220734 0.0162149 0.00766346 0.0221836 
0.0215996 0.0134559 0.0222747 0.0183042 0.0131188 0.0205 0.0214137 0.0140242 0.0207701 
0.0228309 0.0140717 0.0205 0.0163477 0.0139394 0.0220061 0.00583353 0.01629 0.0212897 
0.00222946 0.0175997 0.0210507 0.0052958 0.0177601 0.0205005 0.00337844 0.0164506 0.0205 
0.00362499 0.0177453 0.0205 0.000865331 0.0168831 0.0205049 0.00200159 0.0147651 0.0220029 
0.00739732 0.0167621 0.0205 0.00149105 0.0188114 0.0205073 0.00445725 0.0183234 0.0205123 
0.000523102 0.0173807 0.0214392 0.00710698 0.01802 0.0207501 0.000511806 0.0191226 0.0205223 
0.00579538 0.0190194 0.0208444 0.0028177 0.019837 0.0214394 0.00679359 0.0147097 0.0205582 
0.00472383 0.0174062 0.0223273 0.00683417 0.018265 0.0219594 0.0010003 0.0210911 0.021 
0.00787386 0.0207884 0.0215003 0.00812187 0.014578 0.0207526 0.0125178 0.0156891 0.0205 
0.0099873 0.0176139 0.022 0.0112855 0.0141114 0.0205 0.0149371 0.0162475 0.0205 
0.0101054 0.01513 0.0207522 0.0157687 0.0179651 0.0209993 0.0118555 0.0149369 0.0205 
0.0158771 0.0158197 0.0206219 0.0112465 0.0160232 0.0205025 0.0131447 0.017232 0.0212499 
0.013782 0.0144403 0.0215685 0.0108102 0.0152489 0.021952 0.0142936 0.0196452 0.0212502 
0.0117483 0.0157815 0.0224107 0.0173341 0.014284 0.0205056 0.0170374 0.0186251 0.0205 
0.0171357 0.0157623 0.020694 0.0214385 0.0171267 0.0207598 0.017159 0.0197488 0.0205 
0.019596 0.0151907 0.0214999 0.0186007 0.0199765 0.02075 0.0233996 0.015115 0.0205003 
0.0232526 0.0173676 0.0205 0.0226417 0.0196251 0.02075 0.0207458 0.0190228 0.0208383 
0.0172468 0.0186365 0.0214924 0.0211117 0.02014 0.0207816 0.016727 0.0194734 0.0217023 
0.0207898 0.0186899 0.0223324 0.0160561 0.0208544 0.0214086 0.0211462 0.021027 0.0220407 
0.0226303 0.015506 0.0223091 0.00185835 0.0240656 0.0205005 0.00164995 0.0224439 0.020507 
0.000750283 0.0249275 0.02075 0.00132939 0.0243469 0.022006 0.00257124 0.0257606 0.0212584 
0.00465979 0.0215416 0.0212884 0.00229877 0.0220811 0.0216315 0.00620535 0.0231782 0.0209999 
0.00562284 0.0257328 0.0224659 0.00841953 0.025421 0.0205 0.013269 0.0265931 0.0205 
0.0129912 0.0252346 0.0205 0.0144479 0.0215793 0.0205 0.0144083 0.0265979 0.0205 
0.0112597 0.0268243 0.0218839 0.0158693 0.0251147 0.0209999 0.00922025 0.0249439 0.0219749 
0.00925391 0.0269271 0.0222764 0.0214996 0.0255087 0.020502 0.0215529 0.0215741 0.02075 
0.0217273 0.0270765 0.0213372 0.0231346 0.0212783 0.0205 0.0197159 0.0274648 0.0214796 
0.019592 0.0215385 0.020733 0.0214475 0.0239691 0.0219454 0.0184833 0.0280858 0.0205274 
0.000558309 0.0297983 0.0205 0.00269189 0.0288086 0.0217499 0.00307086 0.0343309 0.0220042 
0.000907482 0.031245 0.0205 0.00365963 0.0311321 0.0207512 0.00115788 0.0325306 0.0207506 
0.00507109 0.0325681 0.02075 0.00618076 0.0331066 0.0205 0.00559619 0.0303824 0.0209999 
0.000711298 0.0347009 0.0205 0.00652933 0.0293066 0.0205 0.00379904 0.0316781 0.0221456 
0.00766022 0.0303476 0.0205735 0.000547817 0.0331204 0.021672 0.00953229 0.0314632 0.0205 
0.0144785 0.0301306 0.0205 0.00815012 0.0345598 0.0205103 0.0121342 0.0319269 0.0205 
0.00846415 0.0290955 0.0206814 0.0107925 0.0313661 0.0205226 0.0117154 0.0296699 0.0217499 
0.00921957 0.0340905 0.0221415 0.00804886 0.0333843 0.0205123 0.0139162 0.0311196 0.0210838 
0.0116431 0.0339643 0.02125 0.0150287 0.0333868 0.0223191 0.00812687 0.0318229 0.0220912 
0.0101491 0.0334377 0.0205058 0.0148481 0.0353492 0.0208204 0.0198366 0.0284728 0.02075 
0.0164484 0.0329034 0.0205 0.0214669 0.0340958 0.0209999 0.0229825 0.0335357 0.0205 
0.0185503 0.0300581 0.0212735 0.0182059 0.0350541 0.0215361 0.00599861 0.0367454 0.0218062 
0.00189066 0.0388422 0.0207501 0.0026015 0.0402355 0.0205 0.00150671 0.0400052 0.0204999 
0.000907818 0.0365596 0.0205004 0.00309076 0.0373124 0.020753 0.000500011 0.0398499 0.0205 
0.000753724 0.0412496 0.0207618 0.00197895 0.0411311 0.0205 0.00350062 0.0387901 0.02075 
0.0031514 0.0416057 0.0207482 0.00414652 0.0405111 0.0204998 0.000857899 0.0377309 0.0209384 
0.00784051 0.0382637 0.0205 0.00127224 0.0384811 0.0219615 0.00832071 0.0365794 0.02075 
0.0119022 0.0419705 0.0205 0.0105021 0.0406447 0.0205 0.0119559 0.038667 0.0205 
0.00987505 0.0376375 0.0209999 0.0108039 0.0394377 0.02075 0.00869138 0.0415303 0.0205 
0.00954576 0.0404538 0.0216453 0.00849575 0.0393245 0.021584 0.0143076 0.0411939 0.0209373 
0.0158227 0.0372021 0.0205 0.00850162 0.0376887 0.0224762 0.0119079 0.036376 0.0216775 
0.0149142 0.0423075 0.0205218 0.0102931 0.0360718 0.0218572 0.0135228 0.0419707 0.0221034 
0.0232089 0.036729 0.0211123 0.0188469 0.0384164 0.0205133 0.0168799 0.0389769 0.0205 
0.0178649 0.0392481 0.0205 0.0234709 0.0386788 0.0205039 0.022344 0.0401502 0.0215005 
0.0192268 0.0378522 0.0212855 0.0224054 0.0379794 0.0209129 0.0234681 0.0424371 0.0205 
0.0167766 0.0373146 0.0214403 0.0169994 0.0409691 0.0208599 0.0163839 0.0386139 0.0217689 
0.0210742 0.036873 0.0222667 0.0195253 0.0370492 0.0223246 0.00157081 0.0431271 0.0209999 
0.00780618 0.0436256 0.02075 0.00125519 0.0457123 0.0212656 0.00339715 0.0449788 0.0205919 
0.00160609 0.0484172 0.0217808 0.00283405 0.0467212 0.0205578 0.00465562 0.0463773 0.0218431 
0.00416861 0.0481735 0.0205011 0.00500714 0.0491188 0.0207652 0.00672185 0.0473207 0.0207506 
0.00649618 0.0489422 0.02075 0.0052491 0.0496055 0.0221844 0.00736279 0.0465976 0.0217078 
0.00739978 0.0486035 0.0216449 0.00362942 0.0485836 0.0212402 0.00814316 0.0475562 0.0211819 
0.0124178 0.0442219 0.0205 0.00926258 0.0434636 0.0206926 0.00993351 0.0452309 0.0223579 
0.00850526 0.0491353 0.02075 0.00890438 0.0466614 0.020501 0.0112741 0.047306 0.0205 
0.0112432 0.0487846 0.0224588 0.00954828 0.0478546 0.0207499 0.0151125 0.0477938 0.0222484 
0.0127117 0.0478027 0.0205133 0.0165401 0.0440351 0.0215002 0.017331 0.0483878 0.0205 
0.023224 0.0466369 0.02075 0.0224935 0.0490977 0.0214999 0.0188393 0.0491813 0.021252 
0.0234653 0.0446408 0.0205 0.0164534 0.0494896 0.0205 0.0199439 0.0430692 0.0208003 
[...]
POINT_DATA 1188
FIELD FieldData 7
id 1 1188 int
324 291 561 368 784 32 241 815 448 
228 300 442 816 710 527 256 392 870 
100 490 199 395 474 282 590 176 364 
289 362 370 783 51 233 217 636 171 
549 126 307 676 209 730 764 311 192 
763 66 61 774 108 178 161 159 204 
219 333 142 200 340 452 518 185 31 
123 273 113 544 577 652 290 588 274 
360 64 380 75 154 98 121 427 13 
390 879 137 722 503 1064 1070 44 401 
1166 35 275 46 80 556 342 287 714 
865 756 318 891 686 975 189 10 569 
447 190 319 57 143 6 293 735 308 
49 146 109 578 139 90 71 659 967 
130 41 231 279 693 33 725 697 330 
78 741 439 174 737 713 646 820 323 
611 70 508 881 695 550 1 529 1067 
943 786 678 221 872 110 62 252 43 
709 260 772 450 59 118 188 1061 198 
974 800 345 592 591 465 350 719 272 
628 42 747 523 813 787 726 582 492 
944 896 482 12 700 600 269 1004 54 
180 624 152 780 717 353 1111 144 978 
946 512 566 557 238 862 947 1020 982 
162 36 249 259 534 522 672 348 831 
535 952 337 1081 897 505 261 844 886 
904 138 919 925 980 861 471 984 991 
1103 640 698 609 990 304 1083 1145 60 
451 433 386 366 680 519 579 668 247 
814 733 1108 615 554 91 328 309 514 
641 626 242 584 949 1018 1019 669 835 
969 1134 883 374 985 268 394 326 650 
959 848 993 996 986 1148 878 892 423 
347 543 855 145 3 402 354 265 712 
424 788 682 674 704 495 405 570 453 
496 40 335 367 533 403 371 305 410 
485 168 499 804 133 935 970 859 1097 
1155 122 866 525 567 487 357 331 94 
705 230 361 771 781 637 907 773 510 
467 88 711 11 147 977 923 936 1115 
769 976 653 8 776 702 415 431 573 
73 112 470 48 258 785 661 863 1102 
1005 649 1146 1079 116 378 899 24 421 
446 244 379 165 381 105 694 619 667 
634 948 218 373 81 493 760 1010 580 
860 540 1127 574 1171 593 414 778 306 
445 26 222 186 455 129 45 179 271 
313 477 564 264 601 7 226 332 263 
86 532 314 660 703 140 926 187 736 
103 325 102 779 790 1071 1125 1126 1132 
720 344 38 696 84 964 411 469 255 
157 104 355 18 456 478 225 39 117 
679 645 14 541 589 250 131 586 873 
610 558 745 651 76 243 299 629 167 
351 210 149 69 565 560 22 744 644 
132 513 56 215 53 363 284 295 539 
869 568 559 20 184 443 29 101 197 
422 473 182 302 288 87 125 79 195 
435 173 277 206 563 605 664 407 393 
464 656 498 239 398 235 408 404 376 
257 134 418 358 52 141 163 9 329 
93 481 234 655 85 253 312 606 458 
746 317 391 385 755 297 153 940 684 
596 388 466 151 28 599 320 156 175 
515 997 864 486 237 581 89 155 858 
501 942 598 148 25 220 170 34 507 
524 16 15 572 663 845 97 868 895 
369 954 613 1022 1040 1065 1116 5 971 
929 459 160 17 92 202 136 322 2 
281 604 106 211 724 47 115 365 372 
334 77 631 841 536 164 1072 509 798 
208 625 463 842 887 938 941 587 548 
583 406 472 494 998 1001 286 850 633 
836 1066 731 1104 488 839 212 571 810 
893 958 979 1028 890 1080 1086 1096 1118 
213 30 723 542 419 432 538 172 585 
794 826 853 910 648 801 983 1012 677 
989 1082 120 691 1138 425 19 436 399 
296 888 911 823 972 824 742 1029 617 
673 782 685 343 647 1085 627 476 657 
715 734 833 968 838 662 874 675 1038 
1122 1130 759 1164 400 932 789 758 812 
837 898 956 639 770 1056 1091 1021 1170 
576 688 223 245 748 832 315 285 521 
479 1060 1077 409 1139 934 718 915 1024 
928 1035 1078 1094 1121 1128 1142 1143 1180 
1124 1105 594 1044 908 623 916 957 1048 
1015 1087 1106 1113 1137 1147 1176 483 338 
430 412 638 749 597 877 457 196 99 
504 506 1073 1032 1144 1053 1110 1168 1174 
701 752 1000 1084 1141 1007 1041 1011 1069 
1017 937 384 1120 909 900 500 1016 1026 
1090 1093 1117 1149 1153 1181 775 1036 621 
236 316 765 945 1177 1179 809 1068 802 
901 912 924 960 1003 973 1025 1033 1043 
1092 1101 1047 1107 962 1131 1133 553 1154 
1167 1136 966 876 961 889 917 939 847 
856 927 963 981 738 1051 1062 1095 1152 
1165 1161 375 762 545 462 608 740 607 
603 620 822 537 920 987 1030 1098 1100 
658 950 799 811 441 885 930 602 999 
1023 875 1162 517 1109 426 670 124 687 
526 520 880 562 1049 1088 1135 1140 1058 
852 551 933 382 807 754 55 397 428 
547 37 489 444 193 194 437 791 349 
1059 903 921 797 729 278 792 821 654 
727 356 1054 1055 1099 1089 1123 632 1175 
902 531 1052 992 965 396 74 67 739 
994 777 931 706 341 828 884 346 327 
671 689 690 728 753 808 829 846 913 
1009 502 1031 1037 1151 1156 1169 665 988 
95 267 528 922 894 766 767 854 251 
475 681 840 614 806 555 1034 1076 1158 
1163 1173 750 955 867 692 454 595 716 
834 1075 1150 1157 1160 416 803 857 352 
303 721 227 768 491 438 413 642 301 
150 707 793 851 882 914 1008 1045 1074 
575 511 276 708 270 96 795 796 843 
849 951 953 1014 1050 1119 618 1057 383 
612 817 818 699 827 995 1039 1046 1112 
1182 181 191 461 530 484 643 616 321 
871 905 377 1129 266 1159 1178 201 417 
1027 216 906 254 183 205 819 232 761 
107 732 757 4 229 203 50 283 468 
128 119 635 207 114 1002 1063 82 630 
830 666 683 434 127 497 359 72 387 
546 262 622 420 292 23 298 805 825 
516 918 1006 1013 1042 68 552 1172 480 
214 158 440 65 248 83 63 743 135 
169 246 336 339 224 280 429 449 111 
58 177 294 310 240 389 21 27 166 
460 751 1114 1183 1184 1185 1186 1187 1188 

type 1 1188 int
1 1 1 1 1 1 1 1 1 
1 1 1 1 1 1 1 1 1 
1 1 1 1 1 1 1 1 1 
1 1 1 1 1 1 1 1 1 
1 1 1 1 1 1 1 1 1 
1 1 1 1 1 1 1 1 1 
1 1 1 1 1 1 1 1 1 
1 1 1 1 1 1 1 1 1 
1 1 1 1 1 1 1 1 1 
1 1 1 1 1 1 1 1 1 
1 1 1 1 1 1 1 1 1 
1 1 1 1 1 1 1 1 1 
1 1 1 1 1 1 1 1 1 
1 1 1 1 1 1 1 1 1 
1 1 1 1 1 1 1 1 1 
1 1 1 1 1 1 1 1 1 
1 1 1 1 1 1 1 1 1 
1 1 1 1 1 1 1 1 1 
1 1 1 1 1 1 1 1 1 
1 1 1 1 1 1 1 1 1 
1 1 1 1 1 1 1 1 1 
1 1 1 1 1 1 1 1 1 
1 1 1 1 1 1 1 1 1 
1 1 1 1 1 1 1 1 1 
1 1 1 1 1 1 1 1 1 
1 1 1 1 1 1 1 1 1 
1 1 1 1 1 1 1 1 1 
1 1 1 1 1 1 1 1 1 
1 1 1 1 1 1 1 1 1 
1 1 1 1 1 1 1 1 1 
1 1 1 1 1 1 1 1 1 
1 1 1 1 1 1 1 1 1 
1 1 1 1 1 1 1 1 1 
1 1 1 1 1 1 1 1 1 
1 1 1 1 1 1 1 1 1 
1 1 1 1 1 1 1 1 1 
1 1 1 1 1 1 1 1 1 
1 1 1 1 1 1 1 1 1 
1 1 1 1 1 1 1 1 1 
1 1 1 1 1 1 1 1 1 
1 1 1 1 1 1 1 1 1 
1 1 1 1 1 1 1 1 1 
1 1 1 1 1 1 1 1 1 
1 1 1 1 1 1 1 1 1 
1 1 1 1 1 1 1 1 1 
1 1 1 1 1 1 1 1 1 
1 1 1 1 1 1 1 1 1 
1 1 1 1 1 1 1 1 1 
1 1 1 1 1 1 1 1 1 
1 1 1 1 1 1 1 1 1 
1 1 1 1 1 1 1 1 1 
1 1 1 1 1 1 1 1 1 
1 1 1 1 1 1 1 1 1 
1 1 1 1 1 1 1 1 1 
1 1 1 1 1 1 1 1 1 
1 1 1 1 1 1 1 1 1 
1 1 1 1 1 1 1 1 1 
1 1 1 1 1 1 1 1 1 
1 1 1 1 1 1 1 1 1 
1 1 1 1 1 1 1 1 1 
1 1 1 1 1 1 1 1 1 
1 1 1 1 1 1 1 1 1 
1 1 1 1 1 1 1 1 1 
1 1 1 1 1 1 1 1 1 
1 1 1 1 1 1 1 1 1 
1 1 1 1 1 1 1 1 1 
1 1 1 1 1 1 1 1 1 
1 1 1 1 1 1 1 1 1 
1 1 1 1 1 1 1 1 1 
1 1 1 1 1 1 1 1 1 
1 1 1 1 1 1 1 1 1 
1 1 1 1 1 1 1 1 1 
1 1 1 1 1 1 1 1 1 
1 1 1 1 1 1 1 1 1 
1 1 1 1 1 1 1 1 1 
1 1 1 1 1 1 1 1 1 
1 1 1 1 1 1 1 1 1 
1 1 1 1 1 1 1 1 1 
1 1 1 1 1 1 1 1 1 
1 1 1 1 1 1 1 1 1 
1 1 1 1 1 1 1 1 1 
1 1 1 1 1 1 1 1 1 
1 1 1 1 1 1 1 1 1 
1 1 1 1 1 1 1 1 1 
1 1 1 1 1 1 1 1 1 
1 1 1 1 1 1 1 1 1 
1 1 1 1 1 1 1 1 1 
1 1 1 1 1 1 1 1 1 
1 1 1 1 1 1 1 1 1 
1 1 1 1 1 1 1 1 1 
1 1 1 1 1 1 1 1 1 
1 1 1 1 1 1 1 1 1 
1 1 1 1 1 1 1 1 1 
1 1 1 1 1 1 1 1 1 
1 1 1 1 1 1 1 1 1 
1 1 1 1 1 1 1 1 1 
1 1 1 1 1 1 1 1 1 
1 1 1 1 1 1 1 1 1 
1 1 1 1 1 1 1 1 1 
1 1 1 1 1 1 1 1 1 
1 1 1 1 1 1 1 1 1 
1 1 1 1 1 1 1 1 1 
1 1 1 1 1 1 1 1 1 
1 1 1 1 1 1 1 1 1 
1 1 1 1 1 1 1 1 1 
1 1 1 1 1 1 1 1 1 
1 1 1 1 1 1 1 1 1 
1 1 1 1 1 1 1 1 1 
1 1 1 1 1 1 1 1 1 
1 1 1 1 1 1 1 1 1 
1 1 1 1 1 1 1 1 1 
1 1 1 1 1 1 1 1 1 
1 1 1 1 1 1 1 1 1 
1 1 1 1 1 1 1 1 1 
1 1 1 1 1 1 1 1 1 
1 1 1 1 1 1 1 1 1 
1 1 1 1 1 1 1 1 1 
1 1 1 1 1 1 1 1 1 
1 1 1 1 1 1 1 1 1 
1 1 1 1 1 1 1 1 1 
1 1 1 1 1 1 1 1 1 
1 1 1 1 1 1 1 1 1 
1 1 1 1 1 1 1 1 1 
1 1 1 1 1 1 1 1 1 
1 1 1 1 1 1 1 1 1 
1 1 1 1 1 1 1 1 1 
1 1 1 1 1 1 1 1 1 
1 1 1 1 1 1 1 1 1 
1 1 1 1 1 1 1 1 1 
1 1 1 1 1 1 1 1 1 
1 1 1 1 1 1 1 1 1 
1 1 1 1 1 1 1 1 1 

i 3 1188 int
0 0 0 0 0 0 0 0 0 
0 0 0 0 0 0 0 0 0 
0 0 0 0 0 0 0 0 0 
0 0 0 0 0 0 0 0 0 
0 0 0 0 0 0 0 0 0 
0 0 0 0 0 0 0 0 0 
0 0 0 0 0 0 0 0 0 
0 0 0 0 0 0 0 0 0 
0 0 0 0 0 0 0 0 0 
0 0 0 0 0 0 0 0 0 
0 0 0 0 0 0 0 0 0 
0 0 0 0 0 0 0 0 0 
0 0 0 0 0 0 0 0 0 
0 0 0 0 0 0 0 0 0 
0 0 0 0 0 0 0 0 0 
0 0 0 0 0 0 0 0 0 
0 0 0 0 0 0 0 0 0 
0 0 0 0 0 0 0 0 0 
0 0 0 0 0 0 0 0 0 
0 0 0 0 0 0 0 0 0 
0 0 0 0 0 0 0 0 0 
0 0 0 0 0 0 0 0 0 
0 0 0 0 0 0 0 0 0 
0 0 0 0 0 0 0 0 0 
0 0 0 0 0 0 0 0 0 
0 0 0 0 0 0 0 0 0 
0 0 0 0 0 0 0 0 0 
0 0 0 0 0 0 0 0 0 
0 0 0 0 0 0 0 0 0 
0 0 0 0 0 0 0 0 0 
0 0 0 0 0 0 0 0 0 
0 0 0 0 0 0 0 0 0 
0 0 0 0 0 0 0 0 0 
0 0 0 0 0 0 0 0 0 
0 0 0 0 0 0 0 0 0 
0 0 0 0 0 0 0 0 0 
0 0 0 0 0 0 0 0 0 
0 0 0 0 0 0 0 0 0 
0 0 0 0 0 0 0 0 0 
0 0 0 0 0 0 0 0 0 
0 0 0 0 0 0 0 0 0 
0 0 0 0 0 0 0 0 0 
0 0 0 0 0 0 0 0 0 
0 0 0 0 0 0 0 0 0 
0 0 0 0 0 0 0 0 0 
0 0 0 0 0 0 0 0 0 
0 0 0 0 0 0 0 0 0 
0 0 0 0 0 0 0 0 0 
0 0 0 0 0 0 0 0 0 
0 0 0 0 0 0 0 0 0 
0 0 0 0 0 0 0 0 0 
0 0 0 0 0 0 0 0 0 
0 0 0 0 0 0 0 0 0 
0 0 0 0 0 0 0 0 0 
0 0 0 0 0 0 0 0 0 
0 0 0 0 0 0 0 0 0 
0 0 0 0 0 0 0 0 0 
0 0 0 0 0 0 0 0 0 
0 0 0 0 0 0 0 0 0 
0 0 0 0 0 0 0 0 0 
0 0 0 0 0 0 0 0 0 
0 0 0 0 0 0 0 0 0 
0 0 0 0 0 0 0 0 0 
0 0 0 0 0 0 0 0 0 
0 0 0 0 0 0 0 0 0 
0 0 0 0 0 0 0 0 0 
0 0 0 0 0 0 0 0 0 
0 0 0 0 0 0 0 0 0 
0 0 0 0 0 0 0 0 0 
0 0 0 0 0 0 0 0 0 
0 0 0 0 0 0 0 0 0 
0 0 0 0 0 0 0 0 0 
0 0 0 0 0 0 0 0 0 
0 0 0 0 0 0 0 0 0 
0 0 0 0 0 0 0 0 0 
0 0 0 0 0 0 0 0 0 
0 0 0 0 0 0 0 0 0 
0 0 0 0 0 0 0 0 0 
0 0 0 0 0 0 0 0 0 
0 0 0 0 0 0 0 0 0 
0 0 0 0 0 0 0 0 0 
0 0 0 0 0 0 0 0 0 
0 0 0 0 0 0 0 0 0 
0 0 0 0 0 0 0 0 0 
0 0 0 0 0 0 0 0 0 
0 0 0 0 0 0 0 0 0 
0 0 0 0 0 0 0 0 0 
0 0 0 0 0 0 0 0 0 
0 0 0 0 0 0 0 0 0 
0 0 0 0 0 0 0 0 0 
0 0 0 0 0 0 0 0 0 
0 0 0 0 0 0 0 0 0 
0 0 0 0 0 0 0 0 0 
0 0 0 0 0 0 0 0 0 
0 0 0 0 0 0 0 0 0 
0 0 0 0 0 0 0 0 0 
0 0 0 0 0 0 0 0 0 
0 0 0 0 0 0 0 0 0 
0 0 0 0 0 0 0 0 0 
0 0 0 0 0 0 0 0 0 
0 0 0 0 0 0 0 0 0 
0 0 0 0 0 0 0 0 0 
0 0 0 0 0 0 0 0 0 
0 0 0 0 0 0 0 0 0 
0 0 0 0 0 0 0 0 0 
0 0 0 0 0 0 0 0 0 
0 0 0 0 0 0 0 0 0 
0 0 0 0 0 0 0 0 0 
0 0 0 0 0 0 0 0 0 
0 0 0 0 0 0 0 0 0 
0 0 0 0 0 0 0 0 0 
0 0 0 0 0 0 0 0 0 
0 0 0 0 0 0 0 0 0 
0 0 0 0 0 0 0 0 0 
0 0 0 0 0 0 0 0 0 
0 0 0 0 0 0 0 0 0 
0 0 0 0 0 0 0 0 0 
0 0 0 0 0 0 0 0 0 
0 0 0 0 0 0 0 0 0 
0 0 0 0 0 0 0 0 0 
0 0 0 0 0 0 0 0 0 
0 0 0 0 0 0 0 0 0 
0 0 0 0 0 0 0 0 0 
0 0 0 0 0 0 0 0 0 
0 0 0 0 0 0 0 0 0 
0 0 0 0 0 0 0 0 0 
0 0 0 0 0 0 0 0 0 
0 0 0 0 0 0 0 0 0 
0 0 0 0 0 0 0 0 0 
0 0 0 0 0 0 0 0 0 
0 0 0 0 0 0 0 0 0 
0 0 0 0 0 0 0 0 0 
0 0 0 0 0 0 0 0 0 
0 0 0 0 0 0 0 0 0 
0 0 0 0 0 0 0 0 0 
0 0 0 0 0 0 0 0 0 
0 0 0 0 0 0 0 0 0 
0 0 0 0 0 0 0 0 0 
0 0 0 0 0 0 0 0 0 
0 0 0 0 0 0 0 0 0 
0 0 0 0 0 0 0 0 0 
0 0 0 0 0 0 0 0 0 
0 0 0 0 0 0 0 0 0 
0 0 0 0 0 0 0 0 0 
0 0 0 0 0 0 0 0 0 
0 0 0 0 0 0 0 0 0 
0 0 0 0 0 0 0 0 0 
0 0 0 0 0 0 0 0 0 
0 0 0 0 0 0 0 0 0 
0 0 0 0 0 0 0 0 0 
0 0 0 0 0 0 0 0 0 
0 0 0 0 0 0 0 0 0 
0 0 0 0 0 0 0 0 0 
0 0 0 0 0 0 0 0 0 
0 0 0 0 0 0 0 0 0 
0 0 0 0 0 0 0 0 0 
0 0 0 0 0 0 0 0 0 
0 0 0 0 0 0 0 0 0 
0 0 0 0 0 0 0 0 0 
0 0 0 0 0 0 0 0 0 
0 0 0 0 0 0 0 0 0 
0 0 0 0 0 0 0 0 0 
0 0 0 0 0 0 0 0 0 
0 0 0 0 0 0 0 0 0 
0 0 0 0 0 0 0 0 0 
0 0 0 0 0 0 0 0 0 
0 0 0 0 0 0 0 0 0 
0 0 0 0 0 0 0 0 0 
0 0 0 0 0 0 0 0 0 
0 0 0 0 0 0 0 0 0 
0 0 0 0 0 0 0 0 0 
0 0 0 0 0 0 0 0 0 
0 0 0 0 0 0 0 0 0 
0 0 0 0 0 0 0 0 0 
0 0 0 0 0 0 0 0 0 
0 0 0 0 0 0 0 0 0 
0 0 0 0 0 0 0 0 0 
0 0 0 0 0 0 0 0 0 
0 0 0 0 0 0 0 0 0 
0 0 0 0 0 0 0 0 0 
0 0 0 0 0 0 0 0 0 
0 0 0 0 0 0 0 0 0 
0 0 0 0 0 0 0 0 0 
0 0 0 0 0 0 0 0 0 
0 0 0 0 0 0 0 0 0 
0 0 0 0 0 0 0 0 0 
0 0 0 0 0 0 0 0 0 
0 0 0 0 0 0 0 0 0 
0 0 0 0 0 0 0 0 0 
0 0 0 0 0 0 0 0 0 
0 0 0 0 0 0 0 0 0 
0 0 0 0 0 0 0 0 0 
0 0 0 0 0 0 0 0 0 
0 0 0 0 0 0 0 0 0 
0 0 0 0 0 0 0 0 0 
0 0 0 0 0 0 0 0 0 
0 0 0 0 0 0 0 0 0 
0 0 0 0 0 0 0 0 0 
0 0 0 0 0 0 0 0 0 
0 0 0 0 0 0 0 0 0 
0 0 0 0 0 0 0 0 0 
0 0 0 0 0 0 0 0 0 
0 0 0 0 0 0 0 0 0 
0 0 0 0 0 0 0 0 0 
0 0 0 0 0 0 0 0 0 
0 0 0 0 0 0 0 0 0 
0 0 0 0 0 0 0 0 0 
0 0 0 0 0 0 0 0 0 
0 0 0 0 0 0 0 0 0 
0 0 0 0 0 0 0 0 0 
0 0 0 0 0 0 0 0 0 
0 0 0 0 0 0 0 0 0 
0 0 0 0 0 0 0 0 0 
0 0 0 0 0 0 0 0 0 
0 0 0 0 0 0 0 0 0 
0 0 0 0 0 0 0 0 0 
0 0 0 0 0 0 0 0 0 
0 0 0 0 0 0 0 0 0 
0 0 0 0 0 0 0 0 0 
0 0 0 0 0 0 0 0 0 
0 0 0 0 0 0 0 0 0 
0 0 0 0 0 0 0 0 0 
0 0 0 0 0 0 0 0 0 
0 0 0 0 0 0 0 0 0 
0 0 0 0 0 0 0 0 0 
0 0 0 0 0 0 0 0 0 
0 0 0 0 0 0 0 0 0 
0 0 0 0 0 0 0 0 0 
0 0 0 0 0 0 0 0 0 
0 0 0 0 0 0 0 0 0 
0 0 0 0 0 0 0 0 0 
0 0 0 0 0 0 0 0 0 
0 0 0 0 0 0 0 0 0 
0 0 0 0 0 0 0 0 0 
0 0 0 0 0 0 0 0 0 
0 0 0 0 0 0 0 0 0 
0 0 0 0 0 0 0 0 0 
0 0 0 0 0 0 0 0 0 
0 0 0 0 0 0 0 0 0 
0 0 0 0 0 0 0 0 0 
0 0 0 0 0 0 0 0 0 
0 0 0 0 0 0 0 0 0 
0 0 0 0 0 0 0 0 0 
0 0 0 0 0 0 0 0 0 
0 0 0 0 0 0 0 0 0 
0 0 0 0 0 0 0 0 0 
0 0 0 0 0 0 0 0 0 
0 0 0 0 0 0 0 0 0 
0 0 0 0 0 0 0 0 0 
0 0 0 0 0 0 0 0 0 
0 0 0 0 0 0 0 0 0 
0 0 0 0 0 0 0 0 0 
0 0 0 0 0 0 0 0 0 
0 0 0 0 0 0 0 0 0 
0 0 0 0 0 0 0 0 0 
0 0 0 0 0 0 0 0 0 
0 0 0 0 0 0 0 0 0 
0 0 0 0 0 0 0 0 0 
0 0 0 0 0 0 0 0 0 
0 0 0 0 0 0 0 0 0 
0 0 0 0 0 0 0 0 0 
0 0 0 0 0 0 0 0 0 
0 0 0 0 0 0 0 0 0 
0 0 0 0 0 0 0 0 0 
0 0 0 0 0 0 0 0 0 
0 0 0 0 0 0 0 0 0 
0 0 0 0 0 0 0 0 0 
0 0 0 0 0 0 0 0 0 
0 0 0 0 0 0 0 0 0 
0 0 0 0 0 0 0 0 0 
0 0 0 0 0 0 0 0 0 
0 0 0 0 0 0 0 0 0 
0 0 0 0 0 0 0 0 0 
0 0 0 0 0 0 0 0 0 
0 0 0 0 0 0 0 0 0 
0 0 0 0 0 0 0 0 0 
0 0 0 0 0 0 0 0 0 
0 0 0 0 0 0 0 0 0 
0 0 0 0 0 0 0 0 0 
0 0 0 0 0 0 0 0 0 
0 0 0 0 0 0 0 0 0 
0 0 0 0 0 0 0 0 0 
0 0 0 0 0 0 0 0 0 
0 0 0 0 0 0 0 0 0 
0 0 0 0 0 0 0 0 0 
0 0 0 0 0 0 0 0 0 
0 0 0 0 0 0 0 0 0 
0 0 0 0 0 0 0 0 0 
0 0 0 0 0 0 0 0 0 
0 0 0 0 0 0 0 0 0 
0 0 0 0 0 0 0 0 0 
0 0 0 0 0 0 0 0 0 
0 0 0 0 0 0 0 0 0 
0 0 0 0 0 0 0 0 0 
0 0 0 0 0 0 0 0 0 
0 0 0 0 0 0 0 0 0 
0 0 0 0 0 0 0 0 0 
0 0 0 0 0 0 0 0 0 
0 0 0 0 0 0 0 0 0 
0 0 0 0 0 0 0 0 0 
0 0 0 0 0 0 0 0 0 
0 0 0 0 0 0 0 0 0 
0 0 0 0 0 0 0 0 0 
0 0 0 0 0 0 0 0 0 
0 0 0 0 0 0 0 0 0 
0 0 0 0 0 0 0 0 0 
0 0 0 0 0 0 0 0 0 
0 0 0 0 0 0 0 0 0 
0 0 0 0 0 0 0 0 0 
0 0 0 0 0 0 0 0 0 
0 0 0 0 0 0 0 0 0 
0 0 0 0 0 0 0 0 0 
0 0 0 0 0 0 0 0 0 
0 0 0 0 0 0 0 0 0 
0 0 0 0 0 0 0 0 0 
0 0 0 0 0 0 0 0 0 
0 0 0 0 0 0 0 0 0 
0 0 0 0 0 0 0 0 0 
0 0 0 0 0 0 0 0 0 
0 0 0 0 0 0 0 0 0 
0 0 0 0 0 0 0 0 0 
0 0 0 0 0 0 0 0 0 
0 0 0 0 0 0 0 0 0 
0 0 0 0 0 0 0 0 0 
0 0 0 0 0 0 0 0 0 
0 0 0 0 0 0 0 0 0 
0 0 0 0 0 0 0 0 0 
0 0 0 0 0 0 0 0 0 
0 0 0 0 0 0 0 0 0 
0 0 0 0 0 0 0 0 0 
0 0 0 0 0 0 0 0 0 
0 0 0 0 0 0 0 0 0 
0 0 0 0 0 0 0 0 0 
0 0 0 0 0 0 0 0 0 
0 0 0 0 0 0 0 0 0 
0 0 0 0 0 0 0 0 0 
0 0 0 0 0 0 0 0 0 
0 0 0 0 0 0 0 0 0 
0 0 0 0 0 0 0 0 0 
0 0 0 0 0 0 0 0 0 
0 0 0 0 0 0 0 0 0 
0 0 0 0 0 0 0 0 0 
0 0 0 0 0 0 0 0 0 
0 0 0 0 0 0 0 0 0 
0 0 0 0 0 0 0 0 0 
0 0 0 0 0 0 0 0 0 
0 0 0 0 0 0 0 0 0 
0 0 0 0 0 0 0 0 0 
0 0 0 0 0 0 0 0 0 
0 0 0 0 0 0 0 0 0 
0 0 0 0 0 0 0 0 0 
0 0 0 0 0 0 0 0 0 
0 0 0 0 0 0 0 0 0 
0 0 0 0 0 0 0 0 0 
0 0 0 0 0 0 0 0 0 
0 0 0 0 0 0 0 0 0 
0 0 0 0 0 0 0 0 0 
0 0 0 0 0 0 0 0 0 
0 0 0 0 0 0 0 0 0 
0 0 0 0 0 0 0 0 0 
0 0 0 0 0 0 0 0 0 
0 0 0 0 0 0 0 0 0 
0 0 0 0 0 0 0 0 0 
0 0 0 0 0 0 0 0 0 
0 0 0 0 0 0 0 0 0 
0 0 0 0 0 0 0 0 0 
0 0 0 0 0 0 0 0 0 
0 0 0 0 0 0 0 0 0 
0 0 0 0 0 0 0 0 0 
0 0 0 0 0 0 0 0 0 
0 0 0 0 0 0 0 0 0 
0 0 0 0 0 0 0 0 0 
0 0 0 0 0 0 0 0 0 
0 0 0 0 0 0 0 0 0 
0 0 0 0 0 0 0 0 0 
0 0 0 0 0 0 0 0 0 
0 0 0 0 0 0 0 0 0 
0 0 0 0 0 0 0 0 0 
0 0 0 0 0 0 0 0 0 
0 0 0 0 0 0 0 0 0 
0 0 0 0 0 0 0 0 0 
0 0 0 0 0 0 0 0 0 
0 0 0 0 0 0 0 0 0 
0 0 0 0 0 0 0 0 0 
0 0 0 0 0 0 0 0 0 
0 0 0 0 0 0 0 0 0 
0 0 0 0 0 0 0 0 0 
0 0 0 0 0 0 0 0 0 
0 0 0 0 0 0 0 0 0 
0 0 0 0 0 0 0 0 0 
0 0 0 0 0 0 0 0 0 
0 0 0 0 0 0 0 0 0 
0 0 0 0 0 0 0 0 0 
0 0 0 0 0 0 0 0 0 
0 0 0 0 0 0 0 0 0 
0 0 0 0 0 0 0 0 0 

v 3 1188 double
1.22265 -0.180836 0.00106561 -0.260788 0.328921 -0.00240361 0.670978 -1.49724 2.01716e-06 
-0.587094 0.601644 2.78755e-11 0.940151 -0.273671 -0.00410327 -0.822355 -0.607776 -0.0241461 
-0.736379 0.512002 1.2937e-12 -0.695567 -2.01799 0.141519 0.721556 0.3537 0.0778133 
1.36387 -0.707488 0.0043671 0.0267833 0.00234629 -0.527071 0.0604253 -1.50368 -0.371936 
-0.257539 0.855126 -0.257014 -1.65902 0.0110621 -2.34538e-11 0.0730245 -1.14643 0.00560515 
0.000822604 -0.979622 -0.859597 1.29354 0.611103 -0.0122878 -0.32364 -0.471742 0.251405 
0.231495 0.371296 -1.02167 0.325973 -0.433841 -0.599146 -1.46468 0.319988 -0.00298405 
0.384156 -0.0229445 3.24586e-11 0.0627133 -0.0469413 -0.000253498 -0.0679253 -0.816847 -0.000241597 
-0.942611 -0.703559 0.025704 -0.259975 0.0162597 -0.938894 -0.879969 -0.0119586 0.700059 
-0.913579 -0.814197 -2.49625e-05 -1.20154 -0.315468 -0.0860705 0.147991 0.0452936 1.35873e-11 
-0.597519 0.0743904 -1.02718 -1.08633 -0.450657 0.00348788 0.182235 -0.302134 0.00362701 
-0.92372 -0.502448 0.0862504 -1.18221 0.501084 -0.0132104 -1.41181 0.416809 0.616584 
-1.07913 0.126772 -0.346713 -1.48968 0.0866547 0.129406 -1.19631 -1.95052 0.00194667 
-0.180172 0.0535905 0.0763667 0.13264 -0.653528 0.0928863 0.0742218 0.849246 -0.664147 
-1.09979 -0.861008 0.464991 -1.00798 -0.473432 -0.569984 -0.466339 1.09814 0.709437 
-1.06995 -1.29117 -1.36629 -1.86153 0.660421 0.100856 -0.989682 -0.255667 0.150857 
0.59794 0.777279 2.38509 -1.46887 0.0782337 -0.0974477 0.0341958 -0.00464812 -2.95665e-11 
0.000206346 -0.00870932 -0.00120359 -0.0831972 -0.255681 -1.33721e-11 0.00369345 0.115262 2.74074e-09 
0.0663854 -0.618843 1.6235e-08 0.00630908 0.296914 0.403438 -0.0198059 0.119408 -4.65475e-07 
-0.363947 -0.585285 0.000574061 -0.0751859 -0.919866 0.0287359 -0.0124978 -0.763515 0.0160725 
-0.349303 -0.47649 -1.34751 -1.70185 -0.300838 -0.00179162 -0.993469 0.0367659 0.0251264 
-0.0556542 0.0511309 -0.0202195 -0.210071 0.360828 -0.243553 -1.88121 0.20703 -2.45641e-10 
-1.20359 -0.0966018 -1.24884 -0.0226264 -0.85918 0.0354691 -1.21361 -1.3199 -0.0653485 
-0.300197 0.0417308 -0.260721 -0.631307 0.301572 1.04598e-11 -0.134301 -1.25245 -1.24555e-11 
0.352041 -0.463493 2.60423e-11 1.1588 0.209137 -2.1715e-06 -0.579149 -0.959246 -3.07878e-11 
0.108674 1.37269 -0.0245601 0.507337 -0.131252 -0.869945 -0.403295 -0.485188 -0.0431591 
-0.239426 -1.74008 -0.0597712 0.909691 0.535027 4.04354e-12 -0.0990861 -0.538738 -1.28537e-08 
-0.990944 0.178861 -0.0816134 1.1477 0.305927 -1.05853e-06 -0.51583 -0.476015 -7.86879e-05 
0.238184 -1.08675 -1.39693 -0.00594999 -0.927829 -0.956075 0.230605 0.70441 -0.0701084 
0.0503761 0.565477 -0.0221659 -0.171472 -0.342845 7.04718e-12 0.358445 -1.32349 -0.201667 
0 0 -0.148352 0.238223 -1.57554 0.0830405 -0.713045 -0.0130231 -0.178126 
-2.09051 0.514691 -1.95841e-05 -0.626202 0.27492 -0.0066834 -0.46871 -0.900087 9.04866e-05 
0.831778 -1.19426 1.40402 -0.711109 -1.34406 -0.206747 0.0297076 1.01351 0.271997 
-0.113965 -0.146501 0.0938271 -0.33024 -0.0809841 0.213559 -1.14496 -0.111445 -0.856535 
-2.52761 -0.207101 1.68761e-11 0.104219 -1.15914 -0.0794028 1.27144 0.0538402 0.658994 
-0.0934083 -0.152902 0.129092 -0.00788096 0.539662 0.00787704 0.455635 -2.37597 -0.00261733 
1.6089 1.06885 -1.63189 -0.606863 -1.15795 1.14149e-06 0.288767 -0.774626 -0.0590732 
-0.226548 -0.445305 0.0553091 -1.10804 -1.29689 0.0274419 0.199933 -1.24271 0.122215 
-0.0773737 -0.594388 -0.0642757 0.402761 -1.21511 0.0523448 -0.00822137 -0.807215 -0.158805 
-1.08974 -1.10044 -7.48775e-06 -0.484314 -1.54715 -0.0574235 -0.771428 -0.542324 0.000385077 
-0.00834324 -1.1731 -0.0455043 -0.130021 -0.510005 0.157035 -0.944715 -0.769266 -0.707943 
-0.790501 -0.956573 3.42918e-11 -1.04834 -0.422414 -0.86397 -0.302833 0.232687 -0.01393 
0.628216 -0.0658966 -2.29243 -0.270691 -1.41297 1.55456e-11 -0.137025 -0.931409 2.51169e-11 
-0.00479716 -0.274663 -1.16191 -0.249991 -1.69627 0.058244 -1.1554 -0.272184 -0.976496 
2.92808 -2.00387 0.631924 2.05063 -2.8455 -2.98712e-11 -0.150149 -0.779988 0.0727617 
-0.388851 -1.02141 -1.06223e-11 0.905615 -3.20594 0.441812 0.323967 -0.756759 0.117459 
-0.940668 -0.888355 0.129441 -1.32144 -1.38182 -0.161932 -1.88964 -2.31662 2.78755e-11 
-1.20343 -2.71225 -3.2554e-11 -1.07846 -3.49959 -0.0819675 0.0234403 -1.05688 0.012668 
0.495388 -2.5411 -0.00123869 0.685236 0.119318 0.0977844 -1.64271 -1.78315 0.0201293 
0.108132 -2.69782 0.855067 -0.658901 -2.355 0.0201139 0.203975 0.331693 -0.983371 
-0.345419 -0.88319 0.387344 -0.633838 -1.31659 0.85852 0.443527 0.600342 0.0741153 
-1.50335 -1.08323 -0.0160324 -1.82076 -0.696758 -0.535047 0.1072 -0.110962 0.042241 
-1.38066 -2.09564 0.0265775 0.821984 -1.48195 -0.0417869 -1.79841 -2.1479 0.000388931 
-0.308715 -1.81799 0.0304303 -2.05206 -2.12936 1.77928e-11 1.14363 -1.96097 -2.89546e-11 