# vtk DataFile Version 4.0
Generated by LIGGGHTS
ASCII
DATASET POLYDATA
POINTS 567 float
0.00399356 0.00399806 0.0220064 0.00312169 0.0070826 0.0205361 0.00811711 0.000696151 0.0209307 
0.0145497 0.00452522 0.02196 0.00992046 0.00392003 0.0205 0.00882701 0.004203 0.0205257 
0.0106899 0.00443364 0.0216663 0.0105306 0.0069354 0.0220095 0.0120993 0.00201956 0.0208843 
0.0164248 0.00473229 0.0205 0.0193502 0.000970789 0.0207571 0.0208355 0.000754559 0.0207551 
0.0162899 0.00284515 0.0212499 0.0224536 0.00691144 0.0205 0.0212595 0.00218685 0.0208562 
0.0209044 0.00368769 0.0210076 0.0175565 0.00646319 0.0214999 0.0187881 0.0029477 0.0212499 
0.0231392 0.0053496 0.0217101 0.0219058 0.00120467 0.0217164 0.00589057 0.00939856 0.0205 
0.00757706 0.0117474 0.0206378 0.00261612 0.014058 0.0207046 0.00361843 0.0116026 0.0215206 
0.00525375 0.0121535 0.0209475 0.00548965 0.0112708 0.0214252 0.00255053 0.00903209 0.0209999 
0.00472415 0.0108809 0.0207994 0.00389855 0.0096497 0.0215526 0.00128583 0.0137264 0.0207934 
0.0155223 0.00827035 0.0223573 0.00998097 0.0096078 0.0205184 0.00974898 0.0123307 0.0207474 
0.0122579 0.01022 0.0205 0.0108103 0.0127992 0.0212062 0.014694 0.011202 0.02075 
0.0136624 0.012348 0.0205395 0.00862232 0.0109901 0.0205204 0.00948577 0.0133053 0.0216242 
0.0118414 0.0136693 0.0218566 0.00851865 0.0141529 0.0209136 0.0171496 0.00870597 0.02075 
0.0217783 0.0134081 0.0207508 0.0200801 0.00705788 0.0207682 0.0174934 0.0132322 0.0209872 
0.0216276 0.0111403 0.0215087 0.0228311 0.0132782 0.0221002 0.0231137 0.00982318 0.0212339 
0.0187765 0.0113499 0.0208511 0.0194728 0.00927546 0.0212936 0.0190352 0.0117596 0.0221176 
0.0188226 0.0125742 0.0205131 0.0212684 0.00727408 0.022254 0.0232349 0.00845547 0.0221539 
0.00150222 0.016811 0.0215083 0.00532887 0.018671 0.02075 0.00754281 0.0180756 0.0209152 
0.00770722 0.0190502 0.0207004 0.00386048 0.0193255 0.02075 0.00671933 0.0196418 0.0205282 
0.000547071 0.0182801 0.0205028 0.000509497 0.0201706 0.0205064 0.00568022 0.0208464 0.0213993 
0.0153777 0.0142155 0.0219033 0.0115451 0.0181353 0.0210065 0.00918514 0.0208016 0.0219999 
0.0156918 0.0171349 0.0218063 0.0116012 0.0199892 0.0222866 0.0102738 0.0171618 0.0221678 
0.0183949 0.0192868 0.0205165 0.0198962 0.0185786 0.0205142 0.0187514 0.017367 0.0211661 
0.0234747 0.0171907 0.0205634 0.0176197 0.0144612 0.0205234 0.019608 0.014204 0.0222609 
0.0227403 0.0191246 0.0212273 0.0229588 0.0150337 0.0210605 0.019184 0.0203075 0.0214063 
0.00198687 0.0224209 0.0213164 0.00575931 0.0250594 0.0205 0.00705893 0.0241618 0.0214596 
0.00198769 0.0278583 0.02075 0.00653766 0.0277436 0.022007 0.0109311 0.021775 0.0204995 
0.0141626 0.0239114 0.0210314 0.0105871 0.0233549 0.0205465 0.00950587 0.025652 0.0207567 
0.0120138 0.0276264 0.0218123 0.0109087 0.0225588 0.021137 0.0106432 0.0244998 0.021954 
0.0232418 0.0247794 0.0207925 0.0188708 0.02573 0.0222182 0.0234988 0.0231738 0.0205023 
0.0225878 0.0228646 0.0208901 0.0215396 0.0234591 0.0217906 0.0212333 0.0244111 0.0205205 
0.0180344 0.0245336 0.0221943 0.000500413 0.029028 0.0205137 0.00175083 0.0304155 0.0217788 
0.00410774 0.0333233 0.0220273 0.00106619 0.0325537 0.0209432 0.00584831 0.0348694 0.0205194 
0.00748173 0.0308024 0.0207648 0.00982025 0.0288739 0.0209319 0.0136871 0.0312489 0.0213002 
0.0150458 0.0346869 0.0205 0.0103393 0.0345559 0.0205369 0.0139091 0.0353134 0.0205018 
0.0127657 0.0327379 0.0205272 0.0158255 0.0321599 0.0209999 0.015867 0.0297818 0.0211022 
0.00891231 0.03481 0.0219302 0.0116696 0.0352575 0.0219203 0.0181699 0.0298495 0.0205137 
0.0173413 0.029949 0.0211049 0.0169236 0.0349589 0.0208394 0.0166465 0.0335593 0.0205 
0.0182479 0.0314457 0.02125 0.0210378 0.0348433 0.0208684 0.00644243 0.0408817 0.0205191 
0.00121373 0.0407554 0.0210341 0.00541134 0.0400152 0.0212851 0.00722174 0.0373298 0.0219294 
0.000745535 0.0362116 0.0214673 0.00297589 0.040463 0.0208738 0.00240966 0.0361301 0.020632 
0.00630604 0.0385423 0.0219018 0.0106405 0.0362982 0.0205056 0.0108063 0.0396817 0.0204944 
0.0147288 0.0377974 0.0215431 0.00839324 0.0404443 0.021752 0.0155157 0.0401074 0.0204999 
0.0142848 0.0388678 0.0212479 0.0140431 0.0366253 0.0222801 0.0183003 0.0406464 0.0205085 
0.0164767 0.0388831 0.020854 0.0183586 0.0354977 0.0205009 0.0177348 0.0392258 0.0205458 
0.0194115 0.036924 0.0222649 0.00111781 0.048148 0.0210252 0.000558944 0.049091 0.0205652 
0.00279257 0.0476407 0.0214572 0.00417918 0.0490499 0.0209693 0.00557707 0.0450231 0.0218425 
0.00894132 0.0491112 0.0220005 0.0109563 0.0477789 0.0205 0.0109834 0.0454169 0.0205045 
0.0123957 0.0472153 0.0222762 0.00898138 0.0455284 0.0211414 0.0229999 0.0433218 0.0209999 
0.0230241 0.0467549 0.02075 0.0210549 0.0456143 0.0214999 0.0232489 0.047974 0.0216621 
0.0222374 0.0494875 0.021663 0.0186502 0.0465689 0.0223462 0.019287 0.042837 0.0216222 
0.00630523 0.0508356 0.0207501 0.00455211 0.0506397 0.0210039 0.00155889 0.0501252 0.0214654 
0.00385098 0.0529355 0.0207162 0.000769386 0.0568115 0.0205235 0.00125101 0.0500985 0.0205049 
0.000608297 0.0547722 0.0208111 0.000936853 0.052231 0.021023 0.00586889 0.052167 0.0221341 
0.0134918 0.0498396 0.0210421 0.00971158 0.0515526 0.0205858 0.0149076 0.0525281 0.0207249 
0.0151789 0.055103 0.0207575 0.012791 0.0532568 0.0215162 0.0163433 0.0507942 0.0205 
0.0169042 0.054148 0.0214159 0.0230246 0.0526544 0.0206582 0.0191921 0.0552878 0.0212499 
0.0226559 0.0552417 0.0212499 0.0235 0.0539041 0.0205 0.0234881 0.0517547 0.0211308 
0.0232314 0.053557 0.0217798 0.0187474 0.0515761 0.0220007 0.0227443 0.0510553 0.0215061 
0.00149964 0.059446 0.0218605 0.00167562 0.0620299 0.0210292 0.000864703 0.063617 0.0208022 
0.00725072 0.0620741 0.0214246 0.00482476 0.0574373 0.021538 0.00938127 0.0628006 0.0206572 
0.00914079 0.056798 0.021663 0.011018 0.0619206 0.02075 0.013287 0.0590343 0.0219194 
0.0117747 0.0569549 0.0217935 0.0100155 0.0609038 0.0212243 0.00899648 0.0628684 0.0224102 
0.0157605 0.0571338 0.0221125 0.0136116 0.0621875 0.0224408 0.0228347 0.0575031 0.0213966 
0.0233946 0.0598494 0.0206897 0.0221107 0.0584812 0.0205 0.0173638 0.057985 0.0209643 
0.0188083 0.0621618 0.0222757 0.0219095 0.0589505 0.0216916 0.0234797 0.0612555 0.0210342 
0.0209318 0.0590939 0.0218813 0.00565311 0.0645702 0.0205225 0.00287044 0.0645866 0.0221977 
0.000500054 0.0648145 0.020577 0.00250821 0.0667122 0.0215595 0.000538223 0.0671037 0.0211345 
0.00583795 0.0679536 0.021563 0.001574 0.0678637 0.0213082 0.00972006 0.0704035 0.0208806 
0.0157896 0.0678276 0.0205 0.0118605 0.0647735 0.0213938 0.0100642 0.0663902 0.0215479 
0.00851982 0.0648251 0.0216595 0.0134213 0.0672295 0.0217499 0.00910335 0.0679361 0.0215514 
0.00890333 0.0669575 0.0223492 0.010267 0.07022 0.0219933 0.0164094 0.0669147 0.0211034 
0.0225911 0.0660025 0.0207497 0.0198048 0.0666498 0.0205954 0.0233956 0.0675227 0.0205 
0.0217312 0.0693523 0.0205003 0.0208913 0.0659976 0.0205171 0.01694 0.0699873 0.0205 
0.0195198 0.0692087 0.0217499 0.0214169 0.0670118 0.0210228 0.017327 0.0659388 0.0205803 
0.0226342 0.0696448 0.0208397 0.0209754 0.0654406 0.0213905 0.0228993 0.0669151 0.0222781 
0.0232039 0.0651143 0.0217863 0.0194574 0.0659653 0.0222788 0.00676805 0.0710979 0.0214999 
0.00132302 0.0726052 0.0205 0.00341126 0.0710365 0.0207652 0.00242448 0.0769548 0.0210009 
0.00052478 0.0736349 0.0206453 0.00717823 0.0733752 0.02075 0.000749888 0.0772335 0.0214323 
0.00549479 0.0747809 0.0219738 0.00781846 0.0752818 0.020539 0.000930377 0.0755638 0.0205339 
0.0142005 0.0769976 0.0205043 0.00962452 0.0757185 0.0205153 0.0140777 0.0766096 0.0220986 
0.011454 0.0769848 0.0213833 0.0121513 0.0750024 0.0222118 0.0101957 0.0771793 0.0220621 
0.00825757 0.0730178 0.0212713 0.0154443 0.0774656 0.0211272 0.0154188 0.0762193 0.0207625 
0.0155057 0.0738518 0.0223955 0.0104924 0.0760117 0.0215957 0.00917632 0.0723358 0.022128 
0.0101642 0.0731346 0.0223644 0.0109839 0.0755873 0.020693 0.0222515 0.0719301 0.0210085 
0.0234981 0.0749753 0.020607 0.0209184 0.0748868 0.0209807 0.00175838 0.00150908 0.0237969 
0.00744424 0.001331 0.0266299 0.00241167 0.0033919 0.0279213 0.00692392 0.00313516 0.0236606 
0.000499746 0.00431223 0.0265833 0.00471347 0.001311 0.0291356 0.00722851 0.0048335 0.0229717 
0.0101599 0.00311748 0.025874 0.00951604 0.000532637 0.0229316 0.0132432 0.00650937 0.0226575 
0.0100288 0.00413337 0.0232948 0.00832577 0.00179955 0.0250667 0.00878499 0.00423102 0.0235832 
0.0113894 0.00136686 0.0247607 0.00993301 0.0010903 0.0275939 0.012632 0.0039755 0.0236657 
0.00988791 0.00114894 0.025663 0.012605 0.00232712 0.0289539 0.0117699 0.00557357 0.0274044 
0.0142162 0.00454107 0.0260838 0.0175127 0.00150768 0.0241642 0.0184263 0.000499531 0.0261684 
0.0203116 0.00122867 0.0235798 0.0222508 0.00184222 0.025443 0.0193491 0.00123241 0.0265694 
0.022861 0.00571934 0.0288847 0.0225624 0.00374014 0.0233515 0.0231791 0.0017911 0.0291049 
0.0176357 0.00133528 0.0278355 0.0229943 0.00369365 0.0277345 0.0224204 0.00281418 0.0293874 
0.0215072 0.0050683 0.0244347 0.0198721 0.00353447 0.0274116 0.00349088 0.00721137 0.0248546 
0.00152382 0.00928075 0.0234577 0.00104118 0.0103161 0.0247618 0.00308465 0.0120929 0.0239718 
0.00752133 0.00971191 0.0238191 0.00163076 0.00855775 0.0286498 0.00244296 0.00969052 0.0292494 
0.00825431 0.00956035 0.0269495 0.0122966 0.0123139 0.027281 0.0112755 0.0096279 0.0226519 
0.0155003 0.0136005 0.0252201 0.00855425 0.0100773 0.0289875 0.00989473 0.00921952 0.0250093 
0.0115848 0.013423 0.025515 0.0105401 0.0137728 0.0235465 0.0129719 0.00796229 0.0240142 
0.0194462 0.00933925 0.023533 0.0223368 0.0129116 0.0285728 0.0213871 0.00888638 0.022882 
0.0231945 0.00766859 0.0278766 0.0201947 0.0117836 0.0235893 0.0197856 0.0105351 0.0250511 
0.0212682 0.0127844 0.0241186 0.0179505 0.0118413 0.026116 0.0211105 0.00795955 0.0285715 
0.0167195 0.0130545 0.0227691 0.0231052 0.0138749 0.0250888 0.0194854 0.0137619 0.0250504 
0.00631533 0.0144273 0.0277336 0.00210782 0.0199247 0.0229873 0.00713627 0.0180307 0.0229023 
[...]
POINT_DATA 567
FIELD FieldData 7
id 1 567 int
324 448 199 25 32 100 395 213 474 
51 178 161 155 159 204 219 126 108 
333 142 228 274 360 64 380 89 442 
490 527 75 97 217 275 289 307 46 
10 501 153 80 556 171 190 200 319 
57 143 452 192 185 66 209 544 340 
98 154 287 110 44 121 13 137 439 
311 30 62 293 252 342 49 78 308 
231 113 33 330 6 41 174 70 482 
12 180 71 260 43 1 60 465 118 
42 337 272 130 139 146 512 162 36 
249 259 354 534 451 269 348 386 405 
505 54 152 547 433 400 345 91 261 
198 374 3 122 423 347 522 265 535 
366 138 40 328 402 410 309 514 242 
268 353 394 285 244 165 331 361 496 
346 88 335 367 533 73 112 168 74 
470 526 554 254 94 264 379 332 421 
105 381 7 431 147 133 306 227 8 
48 186 45 84 179 222 67 530 445 
263 86 216 396 540 129 24 81 414 
484 493 438 502 455 157 104 271 313 
158 18 225 255 299 356 76 351 56 
464 558 288 235 181 325 387 26 473 
214 358 408 39 257 14 134 239 163 
9 404 102 52 418 280 117 65 82 
20 187 210 149 182 69 443 101 215 
87 125 79 195 72 29 435 141 498 
449 173 277 206 563 329 93 481 291 
170 388 466 300 151 561 542 176 282 
362 364 370 148 34 507 524 16 47 
459 31 241 123 160 17 92 273 202 
15 136 322 518 2 486 256 390 427 
447 28 220 392 115 318 372 320 515 
61 164 549 290 77 106 281 365 419 
432 211 5 233 538 334 156 323 35 
401 368 488 237 509 230 188 59 296 
208 450 463 120 212 90 109 172 548 
19 223 175 245 503 508 436 529 550 
399 189 476 55 315 124 279 350 238 
326 369 523 557 99 11 145 382 338 
278 483 430 543 479 247 236 286 517 
343 412 425 494 500 553 304 144 221 
415 416 457 471 492 472 537 316 375 
462 487 506 519 545 397 551 441 453 
305 485 406 384 521 489 536 426 37 
196 276 378 357 495 525 95 428 444 
403 371 424 454 467 499 520 409 218 
504 531 383 475 116 226 251 510 107 
373 344 327 301 446 201 491 456 303 
321 193 114 38 258 341 349 411 480 
564 417 314 232 205 96 103 140 270 
194 352 53 532 250 359 413 497 562 
63 191 246 169 150 131 461 355 469 
477 478 541 119 267 184 4 132 135 
183 422 437 243 528 363 546 555 302 
376 68 339 420 511 552 312 224 111 
266 294 336 297 317 377 385 429 407 
262 197 229 284 203 295 50 22 127 
167 283 468 513 539 559 560 398 292 
128 177 58 248 440 23 298 393 516 
434 310 240 85 389 458 21 234 27 
166 83 207 253 391 460 565 566 567 

type 1 567 int
1 1 1 1 1 1 1 1 1 
1 1 1 1 1 1 1 1 1 
1 1 1 1 1 1 1 1 1 
1 1 1 1 1 1 1 1 1 
1 1 1 1 1 1 1 1 1 
1 1 1 1 1 1 1 1 1 
1 1 1 1 1 1 1 1 1 
1 1 1 1 1 1 1 1 1 
1 1 1 1 1 1 1 1 1 
1 1 1 1 1 1 1 1 1 
1 1 1 1 1 1 1 1 1 
1 1 1 1 1 1 1 1 1 
1 1 1 1 1 1 1 1 1 
1 1 1 1 1 1 1 1 1 
1 1 1 1 1 1 1 1 1 
1 1 1 1 1 1 1 1 1 
1 1 1 1 1 1 1 1 1 
1 1 1 1 1 1 1 1 1 
1 1 1 1 1 1 1 1 1 
1 1 1 1 1 1 1 1 1 
1 1 1 1 1 1 1 1 1 
1 1 1 1 1 1 1 1 1 
1 1 1 1 1 1 1 1 1 
1 1 1 1 1 1 1 1 1 
1 1 1 1 1 1 1 1 1 
1 1 1 1 1 1 1 1 1 
1 1 1 1 1 1 1 1 1 
1 1 1 1 1 1 1 1 1 
1 1 1 1 1 1 1 1 1 
1 1 1 1 1 1 1 1 1 
1 1 1 1 1 1 1 1 1 
1 1 1 1 1 1 1 1 1 
1 1 1 1 1 1 1 1 1 
1 1 1 1 1 1 1 1 1 
1 1 1 1 1 1 1 1 1 
1 1 1 1 1 1 1 1 1 
1 1 1 1 1 1 1 1 1 
1 1 1 1 1 1 1 1 1 
1 1 1 1 1 1 1 1 1 
1 1 1 1 1 1 1 1 1 
1 1 1 1 1 1 1 1 1 
1 1 1 1 1 1 1 1 1 
1 1 1 1 1 1 1 1 1 
1 1 1 1 1 1 1 1 1 
1 1 1 1 1 1 1 1 1 
1 1 1 1 1 1 1 1 1 
1 1 1 1 1 1 1 1 1 
1 1 1 1 1 1 1 1 1 
1 1 1 1 1 1 1 1 1 
1 1 1 1 1 1 1 1 1 
1 1 1 1 1 1 1 1 1 
1 1 1 1 1 1 1 1 1 
1 1 1 1 1 1 1 1 1 
1 1 1 1 1 1 1 1 1 
1 1 1 1 1 1 1 1 1 
1 1 1 1 1 1 1 1 1 
1 1 1 1 1 1 1 1 1 
1 1 1 1 1 1 1 1 1 
1 1 1 1 1 1 1 1 1 
1 1 1 1 1 1 1 1 1 
1 1 1 1 1 1 1 1 1 
1 1 1 1 1 1 1 1 1 
1 1 1 1 1 1 1 1 1 

i 3 567 int
0 0 0 0 0 0 0 0 0 
0 0 0 0 0 0 0 0 0 
0 0 0 0 0 0 0 0 0 
0 0 0 0 0 0 0 0 0 
0 0 0 0 0 0 0 0 0 
0 0 0 0 0 0 0 0 0 
0 0 0 0 0 0 0 0 0 
0 0 0 0 0 0 0 0 0 
0 0 0 0 0 0 0 0 0 
0 0 0 0 0 0 0 0 0 
0 0 0 0 0 0 0 0 0 
0 0 0 0 0 0 0 0 0 
0 0 0 0 0 0 0 0 0 
0 0 0 0 0 0 0 0 0 
0 0 0 0 0 0 0 0 0 
0 0 0 0 0 0 0 0 0 
0 0 0 0 0 0 0 0 0 
0 0 0 0 0 0 0 0 0 
0 0 0 0 0 0 0 0 0 
0 0 0 0 0 0 0 0 0 
0 0 0 0 0 0 0 0 0 
0 0 0 0 0 0 0 0 0 
0 0 0 0 0 0 0 0 0 
0 0 0 0 0 0 0 0 0 
0 0 0 0 0 0 0 0 0 
0 0 0 0 0 0 0 0 0 
0 0 0 0 0 0 0 0 0 
0 0 0 0 0 0 0 0 0 
0 0 0 0 0 0 0 0 0 
0 0 0 0 0 0 0 0 0 
0 0 0 0 0 0 0 0 0 
0 0 0 0 0 0 0 0 0 
0 0 0 0 0 0 0 0 0 
0 0 0 0 0 0 0 0 0 
0 0 0 0 0 0 0 0 0 
0 0 0 0 0 0 0 0 0 
0 0 0 0 0 0 0 0 0 
0 0 0 0 0 0 0 0 0 
0 0 0 0 0 0 0 0 0 
0 0 0 0 0 0 0 0 0 
0 0 0 0 0 0 0 0 0 
0 0 0 0 0 0 0 0 0 
0 0 0 0 0 0 0 0 0 
0 0 0 0 0 0 0 0 0 
0 0 0 0 0 0 0 0 0 
0 0 0 0 0 0 0 0 0 
0 0 0 0 0 0 0 0 0 
0 0 0 0 0 0 0 0 0 
0 0 0 0 0 0 0 0 0 
0 0 0 0 0 0 0 0 0 
0 0 0 0 0 0 0 0 0 
0 0 0 0 0 0 0 0 0 
0 0 0 0 0 0 0 0 0 
0 0 0 0 0 0 0 0 0 
0 0 0 0 0 0 0 0 0 
0 0 0 0 0 0 0 0 0 
0 0 0 0 0 0 0 0 0 
0 0 0 0 0 0 0 0 0 
0 0 0 0 0 0 0 0 0 
0 0 0 0 0 0 0 0 0 
0 0 0 0 0 0 0 0 0 
0 0 0 0 0 0 0 0 0 
0 0 0 0 0 0 0 0 0 
0 0 0 0 0 0 0 0 0 
0 0 0 0 0 0 0 0 0 
0 0 0 0 0 0 0 0 0 
0 0 0 0 0 0 0 0 0 
0 0 0 0 0 0 0 0 0 
0 0 0 0 0 0 0 0 0 
0 0 0 0 0 0 0 0 0 
0 0 0 0 0 0 0 0 0 
0 0 0 0 0 0 0 0 0 
0 0 0 0 0 0 0 0 0 
0 0 0 0 0 0 0 0 0 
0 0 0 0 0 0 0 0 0 
0 0 0 0 0 0 0 0 0 
0 0 0 0 0 0 0 0 0 
0 0 0 0 0 0 0 0 0 
0 0 0 0 0 0 0 0 0 
0 0 0 0 0 0 0 0 0 
0 0 0 0 0 0 0 0 0 
0 0 0 0 0 0 0 0 0 
0 0 0 0 0 0 0 0 0 
0 0 0 0 0 0 0 0 0 
0 0 0 0 0 0 0 0 0 
0 0 0 0 0 0 0 0 0 
0 0 0 0 0 0 0 0 0 
0 0 0 0 0 0 0 0 0 
0 0 0 0 0 0 0 0 0 
0 0 0 0 0 0 0 0 0 
0 0 0 0 0 0 0 0 0 
0 0 0 0 0 0 0 0 0 
0 0 0 0 0 0 0 0 0 
0 0 0 0 0 0 0 0 0 
0 0 0 0 0 0 0 0 0 
0 0 0 0 0 0 0 0 0 
0 0 0 0 0 0 0 0 0 
0 0 0 0 0 0 0 0 0 
0 0 0 0 0 0 0 0 0 
0 0 0 0 0 0 0 0 0 
0 0 0 0 0 0 0 0 0 
0 0 0 0 0 0 0 0 0 
0 0 0 0 0 0 0 0 0 
0 0 0 0 0 0 0 0 0 
0 0 0 0 0 0 0 0 0 
0 0 0 0 0 0 0 0 0 
0 0 0 0 0 0 0 0 0 
0 0 0 0 0 0 0 0 0 
0 0 0 0 0 0 0 0 0 
0 0 0 0 0 0 0 0 0 
0 0 0 0 0 0 0 0 0 
0 0 0 0 0 0 0 0 0 
0 0 0 0 0 0 0 0 0 
0 0 0 0 0 0 0 0 0 
0 0 0 0 0 0 0 0 0 
0 0 0 0 0 0 0 0 0 
0 0 0 0 0 0 0 0 0 
0 0 0 0 0 0 0 0 0 
0 0 0 0 0 0 0 0 0 
0 0 0 0 0 0 0 0 0 
0 0 0 0 0 0 0 0 0 
0 0 0 0 0 0 0 0 0 
0 0 0 0 0 0 0 0 0 
0 0 0 0 0 0 0 0 0 
0 0 0 0 0 0 0 0 0 
0 0 0 0 0 0 0 0 0 
0 0 0 0 0 0 0 0 0 
0 0 0 0 0 0 0 0 0 
0 0 0 0 0 0 0 0 0 
0 0 0 0 0 0 0 0 0 
0 0 0 0 0 0 0 0 0 
0 0 0 0 0 0 0 0 0 
0 0 0 0 0 0 0 0 0 
0 0 0 0 0 0 0 0 0 
0 0 0 0 0 0 0 0 0 
0 0 0 0 0 0 0 0 0 
0 0 0 0 0 0 0 0 0 
0 0 0 0 0 0 0 0 0 
0 0 0 0 0 0 0 0 0 
0 0 0 0 0 0 0 0 0 
0 0 0 0 0 0 0 0 0 
0 0 0 0 0 0 0 0 0 
0 0 0 0 0 0 0 0 0 
0 0 0 0 0 0 0 0 0 
0 0 0 0 0 0 0 0 0 
0 0 0 0 0 0 0 0 0 
0 0 0 0 0 0 0 0 0 
0 0 0 0 0 0 0 0 0 
0 0 0 0 0 0 0 0 0 
0 0 0 0 0 0 0 0 0 
0 0 0 0 0 0 0 0 0 
0 0 0 0 0 0 0 0 0 
0 0 0 0 0 0 0 0 0 
0 0 0 0 0 0 0 0 0 
0 0 0 0 0 0 0 0 0 
0 0 0 0 0 0 0 0 0 
0 0 0 0 0 0 0 0 0 
0 0 0 0 0 0 0 0 0 
0 0 0 0 0 0 0 0 0 
0 0 0 0 0 0 0 0 0 
0 0 0 0 0 0 0 0 0 
0 0 0 0 0 0 0 0 0 
0 0 0 0 0 0 0 0 0 
0 0 0 0 0 0 0 0 0 
0 0 0 0 0 0 0 0 0 
0 0 0 0 0 0 0 0 0 
0 0 0 0 0 0 0 0 0 
0 0 0 0 0 0 0 0 0 
0 0 0 0 0 0 0 0 0 
0 0 0 0 0 0 0 0 0 
0 0 0 0 0 0 0 0 0 
0 0 0 0 0 0 0 0 0 
0 0 0 0 0 0 0 0 0 
0 0 0 0 0 0 0 0 0 
0 0 0 0 0 0 0 0 0 
0 0 0 0 0 0 0 0 0 
0 0 0 0 0 0 0 0 0 
0 0 0 0 0 0 0 0 0 
0 0 0 0 0 0 0 0 0 
0 0 0 0 0 0 0 0 0 
0 0 0 0 0 0 0 0 0 
0 0 0 0 0 0 0 0 0 
0 0 0 0 0 0 0 0 0 
0 0 0 0 0 0 0 0 0 
0 0 0 0 0 0 0 0 0 
0 0 0 0 0 0 0 0 0 
0 0 0 0 0 0 0 0 0 
0 0 0 0 0 0 0 0 0 
0 0 0 0 0 0 0 0 0 

v 3 567 double
-0.325472 1.41132 -0.116756 0 0 -0.593971 2.63375 0.140064 0.124493 
0.570979 0.569038 1.18541 -1.59862 1.57423 -1.97884e-11 -1.20017 -2.52221 -0.249116 
0 0 -0.821563 0.306465 -0.0741375 -0.0849122 0 0 -0.426956 
1.07625 0.593277 0.00159566 8.15179 -0.596424 0.113063 8.30462 0.155355 0.0971741 
-0.499667 -0.325657 -8.09564e-07 0 0 -2.16217e-11 5.08936 4.20506 -0.0372152 
0.161429 -1.74127 -0.0666471 1.37315 0.836034 2.71567e-06 -0.525534 -0.139531 0.00514514 
-0.685055 2.25999 -0.969357 10.3659 1.87483 -2.48 0 0 1.59595e-11 
0 0 -1.38711 0.791342 -0.212238 -1.01492 2.16794 -0.623017 0.312371 
2.27804 0.584734 -1.36186 0.753774 -0.310825 -1.2915 0 0 0.000132887 
0.880906 -0.981387 -1.87361 0 0 -0.217757 0.104851 -3.87367 0.241884 
0 0 -0.00747688 0.98252 0.0450097 -0.0742649 -4.70627 -2.51343 -0.703608 
0 0 1.77928e-11 -1.04063 -6.30604 -2.44958 0.88686 -2.75485 -0.00103773 
1.88236 2.50181 -0.0161444 0 0 -0.309481 -2.73308 -8.01952 -3.13816 
-0.343746 -7.29454 0.487015 0.269004 -0.0788106 -1.70792 -0.161743 1.23579 8.35386e-12 
-2.1361 -6.07536 -0.0207827 1.83432 -3.11036 -0.0871381 0.0832838 2.57924 -1.25543 
3.29755 -5.14406 0.00506773 5.31854 -3.07863 0.344394 4.93958 -3.95661 -1.21904 
1.39151 -5.9005 1.47709 1.53084 -0.464062 -2.69177 -0.221458 -6.71484 1.19303 
-3.73107 -4.82573 0.512258 0 0 -0.155709 -0.073866 -22.8331 -10.6382 
0.0779422 -3.64639 0.0779175 1.00066 -1.18912 3.12368e-11 5.47251 -5.34731 -1.70188 
7.59269 -4.92321 -0.160147 0.0791479 -2.11325 2.06578e-11 3.58786 -7.47415 0.171214 
0.438285 -3.83668 0.0583236 0.0385942 -3.70812 -0.0961151 1.61351 -8.53543 0.726253 
4.89638 0.314277 -2.32194 4.43832 0.245143 0.0698265 1.67354 -0.748575 0.0123285 
2.2522 -5.55212 -0.0486168 1.7807 -0.898619 -1.02502 -3.90533 -4.63705 -5.06085 
9.04583 -5.73455 -0.355989 10.5161 -1.08902 -0.0336938 5.01336 0.0289902 0.768661 
-0.0717072 1.16897 -0.0791362 -2.40824 -0.916335 0.114295 -0.591801 -5.95274 0.962216 
-0.909268 2.67816 0.64952 1.13214 -4.38659 0.744727 3.59508 -5.75635 -4.98119 
1.25466 -5.81396 -0.105838 -5.20798 -2.5289 1.29369e-12 0 0 -0.377906 
0.59066 -1.49664 -1.38425e-11 2.67931 -0.307342 0.065533 4.81511 -5.36349 0.210587 
-0.816512 -2.70394 0.0223942 -0.886911 -10.8489 1.20043 -0.596484 -4.75788 0.191354 
-5.96329 6.04719 1.12008 2.55748 -9.83994 3.11716 1.15642 -4.43562 -1.23778 
-0.053475 0.339979 0.0733443 -4.51966 2.14919 2.883 -0.0458846 -1.29185 -0.0362051 
-0.490695 -1.70359 -3.48448 -0.975801 -8.54412 1.70508 -2.15417 -9.90776 0.00125546 
0 0 -0.253319 0.0199322 -0.698571 -0.0718695 0.0345158 -0.792936 0.116426 
-1.17264 0.269744 0.0224039 0.412402 -9.37108 -3.75583 -2.59622 7.04668 0.0400518 
0 0 -0.187837 7.27629 2.70689 0.481855 -2.1731 -0.560299 -0.0590489 
0 0 2.60423e-11 -3.45096 0.532544 0.945703 0 0 0.034651 
3.07009 -0.934426 0.8473 -2.14113 0.0967785 2.36392e-11 -1.21765 -1.66493 -0.420877 
-25.7055 4.71981 -1.91144 -6.2397 -5.98827 -4.58444 -0.888342 -2.20806 0.0480051 
-1.06025 -3.05797 0.156947 -3.7468 -0.219484 0.0222529 0 0 8.62661e-12 
-1.41884 -2.16557 -0.00336433 2.32516 -1.12887 -0.219571 -1.94717 0.705381 0.063609 
-2.13056 0.712371 0.0867296 0 0 -0.698202 0.788792 0.271913 -2.00138 
3.16279 -7.59723 -4.07282 -0.728744 2.82236 1.24317 0 0 -0.187346 
-4.34408 0.150395 -5.22716 0 0 -0.127718 -4.53801 8.22393 -0.0718187 
0 0 -1.18134 -0.622427 1.10167 -0.182857 0 0 0.0142864 
0 0 0.901379 0.650897 1.94033 -1.47409 0 0 0.0481512 
0 0 -1.40845 -2.30867 -2.88616 0.0653103 0 0 -0.822053 
-2.88535 -2.36358 0.103613 -1.98925 7.50552 1.27245 0.675869 6.87767 0.519059 
0 0 -1.15216 0.405106 5.8428 0.284712 0 0 -0.326403 
2.28434 3.72141 0.0204476 0 0 2.87921e-11 0 0 0.0367758 
-1.02937 -0.694915 -0.451445 0 0 -0.191516 1.21384 2.5179 -1.59818e-11 
0.746061 0.368753 5.73457e-12 -1.51402 2.1438 -0.010197 -0.00420749 0.143401 0.829165 
0 0 -0.445349 0 0 -0.219719 0 0 -0.0664382 
0.209506 3.30996 0.0248603 -0.0335893 0.344393 0.0111237 0.320592 0.027838 0.17148 
3.58327 0.133355 -4.81405 1.03343 5.61234 -0.056487 -0.158122 -0.0137303 0.0984046 
0.403751 0.701119 -2.39364 -4.36587 -2.92595 1.40616 -5.55835 -0.866454 -1.49111 
-5.98295 5.66567 0.249583 2.66999 7.45027 0.293921 1.22218 -2.79846 -1.62837 
-0.321557 0.391116 -0.19867 2.3084 -1.16696 0.230884 2.98843 -4.63385 -1.5668e-09 
0.988162 1.35714 -0.418815 1.51811 0.932858 0.489747 1.10649 1.52357 -2.54777e-11 
-0.208201 3.6007 2.5951e-08 0.000318955 3.72676 7.84619e-11 -0.222166 -0.161809 -0.578129 
-0.982463 3.14977 1.00224 0 0 -0.21089 7.1244 -2.23572 -7.79626 
0.425026 1.74277 1.03433 2.18877 3.76043 0.130949 0.888171 2.99588 0.309156 
-1.08916 3.18248 -1.28415 0 0 -0.170424 9.10091 0.194644 1.14107 
1.13968 -1.94488 0.455394 0 0 -1.12601e-11 0 0 -0.755836 
0 0 -0.370548 0 0 -0.335723 2.50612 1.63009 0.480592 
0.32396 0.934207 -0.746737 -0.568897 1.64487 -1.45055 -0.283713 2.78312 0.346601 
-0.282669 4.56597 -1.84671 -0.808909 2.15519 6.6056e-12 0 0 -1.22304 
1.01608 1.91672 -0.507428 -0.329021 1.56409 -1.16162 -0.351117 0.42946 -2.24375 
-0.738016 0.42667 -1.29091 -5.29977 5.89392 0.206238 1.07308 2.27496 2.40159 
0.0383894 2.98709 0.213072 -0.452589 3.19484 -5.69665 2.76407 -25.3294 -7.80929 
5.50611 6.89387 1.15011 -12.9936 -21.3734 -19.9972 0.781066 1.71225 -3.24187 
0.591312 1.42236 -1.15368e-11 0 0 0.250981 0 0 -1.19017 
0.865524 2.62932 1.00276 -2.89353 -5.76902 -0.00101816 0.0263599 0.128971 -0.606462 
-0.0889648 -0.435279 -1.04845 2.34741 1.48483 -3.55687 0.966347 2.01593 0.660025 
-0.103754 4.25101 -1.78456 1.18263 3.01105 -0.134257 2.89848 3.8655 -1.50178e-11 
-0.728128 -0.263018 0.0203126 -1.24546 2.19134 0.0373674 -0.00714973 1.74082 -6.95584e-12 
3.32118 3.1684 1.85619e-05 2.43558 0.825385 -0.650239 0.136294 0.612501 -0.197789 
-0.851578 -0.495165 0.682412 -4.10179 2.42311 1.67109 -0.252022 7.33708 0.775789 
1.25391 3.73378 -1.76602 0 0 -2.30827 1.17036 3.22802 -2.46093e-06 
1.7279 4.96299 -2.45429e-05 -1.91696 -0.135525 0.171394 -1.26831 -0.327069 -0.00366225 
-1.28915 5.2632 0.595516 -0.0500452 0.0165729 1.65805e-05 0.214285 -0.0859077 -1.55496 
0 0 -0.610893 -1.37257 2.3678 -3.47284 1.689 -3.33 -12.817 
-1.17352 1.49573 -0.0280538 0 0 0.0650608 0.0440451 2.32082 0.463782 
1.10797 2.2653 -1.47914 -0.821826 3.09185 0.21844 -0.312669 1.6692 -0.525702 
0.19303 -0.0639234 -0.528108 0.946879 -0.630767 2.4797 0.806011 -0.900452 -0.300125 
-0.149222 4.47109 1.45693 -0.976373 1.92395 -4.93981 3.7954 7.85063 -1.99994 
0 0 -1.67552 -0.802043 0.607367 -1.02592 0.0560378 4.11239 0.158826 
-0.0148276 5.06446 0.40723 0 0 -0.378151 0.386929 -0.102428 -0.522232 
2.56422 -0.384865 0.819266 1.63598 -2.53914 -1.1314 -3.69729 0.701942 1.73375 
0.431952 -8.55627 -5.16658 -15.1114 1.09251 3.48081 0 0 -0.0411775 
13.1625 8.79425 22.4381 0 0 -1.81875 0 0 -1.36945 
0 0 -1.00575 0.122256 -2.29386 -4.09342 0 0 -0.971656 
0.795877 1.72027 -5.58617 -6.07236 -14.5323 -2.16724 0 0 -0.285201 
0.667416 -5.48657 3.58871 -3.41985 -30.089 -0.41877 -0.16159 -10.1475 0.677619 
-0.299528 -29.6198 -8.16963 6.76872 0.0852754 0.162078 -4.10248 -3.04129 -3.08828 
0.783702 -4.22668 -7.36471 -0.227372 -8.61265 -2.92415 -6.87803 -18.3902 -7.65831 
-0.641059 -0.031522 -0.872859 5.1732 -6.52698 -3.52015 0.386137 1.55951 -0.912359 
0.61192 -4.3863 8.34591 0.158979 2.78373 -1.93774 -4.34179 -0.273958 0.452486 
0.552691 -8.00945 0.142994 -6.41838 -21.7492 5.04973 -0.291484 1.25538 0.468427 
0 0 -1.483 0 0 -0.854426 0 0 -0.676865 
0 0 -0.605252 -3.63144 -20.7319 -6.86665 10.674 -31.5654 5.01215 
-3.91223 -1.2161 -3.83526 2.35548 1.73625 4.15654 0 0 -1.20832 
3.18954 0.776897 0.398428 -10.4314 -5.3561 -0.406577 0.816765 -0.104565 -1.65387 
6.91937 -3.90466 -3.54205 1.90338 -3.70047 1.32108 0 0 -0.113036 
5.02748 4.81372 -1.90033 -2.19418 -2.35981 9.42919 9.8881 2.10903 -2.80507 
-0.948382 -10.3739 -2.76508 0.399 -9.02232 -2.17767 4.85719 0.775346 -0.523921 
-6.10805 -6.71033 4.04105 -0.89425 -4.27887 1.55293 -7.60815 -21.4237 0.53487 
-4.25476 -6.53953 -0.996098 0.327386 -0.154179 0.894577 1.38062 -5.50171 2.26207 
1.07387 2.46968 0.861381 0.492442 -4.62738 2.01512 1.49092 -1.52935 -1.55064 
0 0 -0.797528 0.560264 -7.84133 -6.85066 0.752493 -0.81912 0.843214 
-0.991623 -4.13157 -0.216567 -21.8352 -22.268 8.79064 1.63873 6.93709 4.77846 
0.438327 -0.0346933 -1.52037 -0.657781 -0.576663 -0.14437 -3.9415 -4.37327 -4.85557 
-2.60538 -5.18821 1.8236 0 0 -0.579501 0 0 -0.508379 
0.453886 -1.60436 4.19332 -4.04605 -1.47559 2.93343 5.00443 0.0719315 3.34826 
-1.8198 -5.2597 -0.402909 3.76488 -7.48828 -1.75452 0 0 22.786 
-0.37101 2.76426 1.66737 4.75097 -1.64585 -1.43006 0.572303 -12.0096 -5.07342 
-6.48433 0.752143 -0.488505 0 0 -0.299916 0 0 -0.276863 
10.6443 -13.88 -4.3643 0 0 -0.212117 0 0 -0.111809 
-2.2032 15.6933 -0.516628 2.33961 -6.89586 -1.91815 -5.03158 0.0935726 -0.811918 
13.6282 1.02884 -0.617804 -0.951792 1.79087 3.60282 4.95104 19.4577 6.17864 
11.7613 0.669464 -6.89427 -1.70022 -1.35647 1.72044 -0.573316 -1.56878 -2.46412 
0 0 -1.186 -6.15798 -8.97112 -1.39023 0 0 -0.228058 
0 0 -0.0598165 0.0847449 4.18938 -0.959617 7.54224 11.7695 -2.20149 
0.495987 4.46511 -1.06176 -0.216469 0.216763 0.780114 -2.97192 -1.01386 1.43857 
1.87275 -7.09087 5.69616 0 0 -0.375453 -3.72249 -2.70752 3.56512 
0 0 -0.162576 5.35257 -40.6064 3.5858 -5.22797 -0.519059 7.46208 
-6.62359 7.74501 -1.6603 2.12012 -6.93397 3.4992 31.1539 16.6375 14.1532 
6.38111 2.96246 9.25871 -9.14795 1.91331 14.3061 4.17219 0.100554 4.02606 
0 0 -0.33278 5.87157 -5.09946 -0.458744 -2.89998 -3.10251 26.1401 
3.0952 -10.7509 8.02328 -1.01774 -1.94977 0.0740187 -2.67292 -2.09562 -0.156931 
4.65277 -3.34989 1.74117 0 0 -0.746762 0 0 -0.53928 
-1.81597 9.45021 32.0871 0 0 -0.33793 6.86084 1.46623 2.14595 
2.80463 -4.14825 16.7563 -0.453695 4.01309 12.8113 -12.5917 -2.51209 0.0336572 
-13.1542 1.35277 -0.823009 1.67342 10.3198 -5.93687 -1.17234 -1.75479 3.01779 
0 0 -0.23983 0 0 -0.127505 -3.64469 10.9681 -0.94026 
-3.92545 -0.615056 0.751837 -1.00228 1.97472 0.78277 -0.131718 3.8932 -3.86697 
0.151384 5.79707 -3.75875 5.33477 6.17228 -3.16499 -10.5328 11.3301 6.68189 
0 0 -0.888516 0 0 -0.237623 9.7206 -5.64635 -19.1742 
-1.54914 -2.79962 -6.71242 -6.07472 -4.59332 -2.53178 -2.46953 3.87967 8.29409 
1.13111 -7.84244 2.07775 0 0 -1.38147 -6.66442 0.915434 -6.00301 
2.16437 1.1557 -8.0661 1.9723 0.846325 0.0625371 0 0 -0.222172 
2.92489 -13.8882 2.0011 -5.01904 -4.35308 -2.73752 3.38379 7.51884 2.88144 
1.71457 1.54101 -2.17672 -2.35913 -2.61263 -0.609371 -0.858806 0.392042 -0.507349 
3.0125 -1.0885 3.81117 0 0 -0.471836 2.33783 1.35117 -0.951145 
-2.10162 4.74378 0.122305 -3.89357 0.600951 -3.65267 -0.225296 5.96926 -3.12287 
3.74258 -24.0923 10.3596 -7.02908 5.61076 -7.89051 12.2759 31.0928 -8.00435 
-19.389 13.2749 8.40941 2.82981 43.1775 -2.08497 -0.598703 -0.852475 -2.959 
1.5449 -1.43801 3.1179 -6.27269 1.79685 -4.78288 0.19093 33.5045 10.0774 
-0.824703 -1.82167 0.334287 -10.8287 25.6212 -8.03461 2.47565 1.84587 3.81789 
0.657542 -1.31016 -0.683336 -0.536848 0.693501 -0.574269 -0.21989 -10.684 -1.83724 
0 0 -0.346023 -1.86113 16.3009 -3.11428 4.81999 1.87211 0.988187 
-0.279177 5.41983 -0.0369452 1.92205 -5.34294 4.05223 -5.41909 15.9502 8.2879 
-0.804014 3.81703 -5.56934 2.0108 -0.440516 -2.79726 -2.26598 1.16951 -0.726782 
0.959433 0.587581 -1.42933 -0.305545 2.2271 -1.14669 0.0618846 2.54288 -3.23146 
0 0 -0.0262172 0.215426 0.2859 0.583442 0.605619 4.19405 -7.0969 
0.393193 0.143662 0.607154 -2.89241 4.31963 -1.70796 -2.34678 0.702001 1.13757 
0.982676 1.98224 -0.122532 0 0 -2.0044 0.800365 -0.468152 -0.350584 
0.0627395 -0.632046 -0.170403 2.03445 -3.11471 0.974648 1.90043 -10.7471 0.0374809 
0 0 -0.20059 4.09034 4.06146 -0.146507 6.0603 7.41965 3.15627 
0 0 -0.759515 0 0 -0.326158 0 0 -0.037744 
-0.0330729 5.90384 0.892948 -0.0522086 4.96046 -0.728583 -4.52527 13.0658 -0.726394 
-0.458129 7.15894 -0.142754 -1.73143 0.159802 -0.855059 -0.769176 5.28137 -0.915753 
2.12154 0.55058 0.784706 1.14878 1.43911 -9.14619 1.10774 1.62166 -6.09825 
0 0 -0.413222 0 0 -0.411505 0 0 -0.167236 
4.42004 8.85296 -1.37921 1.19079 9.016 3.44108 4.99728 10.8313 -0.532047 
-2.17171 6.467 -1.58222 0.819706 -2.69747 6.81264 0 0 -2.02304 
-0.332666 -1.68063 3.32018 -0.187066 6.6609 -3.51837 -0.901714 0.849106 0.915504 
3.19514 -8.75329 -6.94247 0 0 -0.216041 -2.19646 -1.6575 9.59337 
0 0 -0.124808 0 0 -0.06325 1.34035 1.46618 -3.89684 
1.91171 0.686856 -0.0423242 2.96065 2.13833 -0.62132 0 0 -1.11733 
-2.39168 3.84463 -1.04331 -0.118598 0.173042 -0.338257 0 0 -0.0958682 
-0.703241 5.3363 1.61027 -0.0176601 8.69337 1.95958 4.04247 7.27343 -0.641657 
4.88073 1.94897 -0.0533444 -0.253861 6.63729 2.65124 3.53882 2.6853 -0.812005 
-6.13835 0.423042 5.24549 0 0 -1.21151 5.70246 0.190064 0.154076 
5.51892 1.72319 0.114988 3.01399 1.15594 1.35572 4.77274 4.06063 -0.494943 
3.7206 2.68399 3.07582 6.73562 0.541493 -7.94555 0.146462 -7.39712 -1.81341 