# vtk DataFile Version 4.0
Generated by LIGGGHTS
ASCII
DATASET POLYDATA
POINTS 647 float
0.00386447 0.00453469 0.0219998 0.00312169 0.0070826 0.0205 0.00910477 0.000748675 0.0209084 
0.0147639 0.00473861 0.0223356 0.00932263 0.00451453 0.0205 0.00838638 0.00327275 0.0205 
0.010688 0.00426534 0.0212679 0.0106019 0.00667193 0.0219998 0.0120993 0.00201956 0.0207504 
0.0132432 0.00650937 0.022075 0.0102872 0.00243231 0.0205575 0.00951604 0.000532637 0.0221806 
0.0168243 0.00495293 0.0205 0.020303 0.000752547 0.0207538 0.0218906 0.000804999 0.0207469 
0.0161555 0.00275015 0.0212542 0.0215695 0.00597672 0.0205782 0.0225266 0.00275526 0.0205005 
0.0209103 0.00317422 0.0210015 0.0180165 0.00671637 0.0214999 0.018679 0.00336467 0.0213043 
0.0223734 0.0039965 0.021512 0.0232499 0.00184083 0.0209964 0.0200748 0.00592026 0.0208047 
0.023249 0.00495242 0.0207518 0.0212801 0.00109758 0.0223567 0.00589057 0.00939856 0.0205 
0.00755216 0.0117477 0.0204999 0.00287838 0.0139877 0.0205044 0.0044267 0.0113748 0.0215784 
0.00608808 0.0123683 0.0205088 0.00577231 0.0111542 0.0208719 0.00255053 0.00903209 0.0209999 
0.00504312 0.0105283 0.0205008 0.00389855 0.0096497 0.021402 0.00142066 0.0122514 0.0207602 
0.00767975 0.0101169 0.0218398 0.000507669 0.011552 0.0214832 0.00487953 0.00709254 0.0215233 
0.00782117 0.00755734 0.0224432 0.0155223 0.00827035 0.0222855 0.0103418 0.00959432 0.0205 
0.00874434 0.0115584 0.0208288 0.0124029 0.00990596 0.0205351 0.0104565 0.0105908 0.0205188 
0.0150265 0.0101734 0.02075 0.0143698 0.0132824 0.0205 0.00823042 0.0103722 0.0205555 
0.00781732 0.0117259 0.0220456 0.0121424 0.0110514 0.0215698 0.00857514 0.0139995 0.0208294 
0.0113177 0.00948539 0.0226309 0.015124 0.0106022 0.0223266 0.0146598 0.00876721 0.0206527 
0.0167302 0.0124566 0.0212328 0.0170891 0.00916491 0.02075 0.021401 0.0112272 0.0207496 
0.0182633 0.0131498 0.0205087 0.0225004 0.00942207 0.0215201 0.0234584 0.0120033 0.0214579 
0.0233488 0.00698196 0.0205202 0.0185136 0.010164 0.020752 0.0198366 0.00876896 0.0213048 
0.0173322 0.0112873 0.0205011 0.021308 0.007223 0.0221608 0.0194547 0.0120866 0.0224913 
0.0229637 0.0134335 0.0212985 0.0172525 0.0137024 0.0205 0.00153382 0.0154441 0.0214999 
0.00542839 0.0162459 0.0207939 0.00389346 0.0185361 0.02075 0.00780513 0.0169753 0.0205513 
0.000664585 0.0169532 0.0205 0.000525002 0.0187872 0.0205 0.00594862 0.0187942 0.0212498 
0.00245859 0.0203415 0.0211308 0.00870186 0.0165095 0.0205006 0.00902355 0.0175032 0.0205103 
0.0103547 0.017271 0.0223327 0.0094889 0.0206724 0.0220968 0.0121287 0.0195192 0.0218219 
0.0091747 0.015384 0.0207924 0.0126887 0.019558 0.0205 0.0142515 0.0203657 0.0222048 
0.0131011 0.0198954 0.0218888 0.0131168 0.0209379 0.0214637 0.0165577 0.0154536 0.0217565 
0.0201557 0.0180771 0.020648 0.023484 0.0184955 0.0205074 0.0206322 0.0166924 0.0217015 
0.0234869 0.0173393 0.0205 0.0226202 0.0200038 0.0212879 0.0208939 0.0194378 0.020749 
0.0211087 0.0202048 0.0223062 0.020427 0.0206991 0.0205 0.0038105 0.0241126 0.0205 
0.00705893 0.0241618 0.0212489 0.00220535 0.0272994 0.02075 0.00681124 0.0275166 0.0220545 
0.00264032 0.0257948 0.0208764 0.0138596 0.0228957 0.0209999 0.0114056 0.021638 0.0205 
0.00928218 0.0238677 0.0207594 0.0112736 0.0233099 0.0214086 0.0232217 0.0249069 0.020751 
0.0234764 0.0226839 0.0205 0.0224624 0.0222727 0.0205567 0.0180344 0.0245336 0.0220304 
0.0167506 0.0231312 0.0210857 0.0225548 0.0261022 0.0205472 0.0192424 0.0241803 0.021453 
0.00050017 0.0286373 0.0205 0.00177039 0.0300234 0.0217501 0.00356604 0.0333304 0.0220156 
0.000532447 0.0315012 0.0205 0.00737156 0.0308093 0.02075 0.00112294 0.0335316 0.0207516 
0.0100813 0.0297592 0.0222759 0.00884344 0.0314051 0.0208082 0.0128911 0.0309979 0.0212502 
0.0145151 0.0345714 0.0205111 0.0090452 0.0347556 0.0208226 0.0138601 0.0353477 0.0205 
0.0136245 0.0330467 0.0205 0.015027 0.0321959 0.0209999 0.0154104 0.0291574 0.0208754 
0.00934508 0.0330409 0.0205304 0.0156973 0.0349018 0.0208479 0.0106483 0.0320626 0.0214688 
0.0178412 0.0290042 0.0205 0.0169437 0.0288022 0.0210948 0.0166465 0.0335593 0.0205 
0.0177071 0.0305832 0.0212499 0.0219053 0.0344208 0.0207511 0.0174951 0.0344176 0.0205 
0.0203807 0.0334627 0.0220564 0.00225525 0.0382173 0.0225142 0.0034259 0.038996 0.0208291 
0.00592706 0.0413494 0.0205 0.00107938 0.0409313 0.0209999 0.00535846 0.040028 0.0210009 
0.00751754 0.0374317 0.0211099 0.00288761 0.0412637 0.0207801 0.00240966 0.0361301 0.0205002 
0.00487396 0.0383099 0.0205462 0.00778604 0.0410827 0.0217499 0.0106405 0.0362982 0.0205 
0.0147552 0.0378415 0.0209918 0.0157382 0.0404927 0.0207286 0.0141042 0.0387276 0.021139 
0.0142608 0.0373089 0.0216977 0.0116446 0.0396226 0.0220468 0.0183003 0.0406464 0.0205 
0.0164767 0.0388831 0.0205122 0.0177348 0.0392258 0.0205 0.0183536 0.0360769 0.0222301 
0.0209907 0.0395933 0.0223297 0.0230445 0.0384431 0.0219008 0.00279257 0.0476407 0.0209561 
0.00406525 0.049388 0.0211303 0.00611062 0.045314 0.0214406 0.00185169 0.0468059 0.0205138 
0.00113375 0.0475438 0.0208134 0.000501174 0.0455824 0.0212774 0.00115711 0.0493923 0.0218143 
0.0030729 0.044847 0.0222565 0.00537566 0.0476998 0.0223253 0.0094595 0.043652 0.0205046 
0.0103734 0.0480555 0.0205039 0.0109834 0.0454169 0.0205 0.0120091 0.0473555 0.0219759 
0.00898138 0.0455284 0.0210006 0.0133498 0.04358 0.0222442 0.0173348 0.0434712 0.0215583 
0.022913 0.0455859 0.0210746 0.0232359 0.0472811 0.0207568 0.0204869 0.0463968 0.0214996 
0.0222374 0.0494875 0.021427 0.0186234 0.0465748 0.0222088 0.0186123 0.048763 0.0215984 
0.017031 0.0493589 0.0205 0.000506504 0.0498462 0.0205153 0.000507369 0.0510732 0.0205134 
0.0063817 0.0520736 0.02075 0.00456076 0.0509335 0.0209999 0.00261556 0.0503638 0.0210961 
0.00496792 0.052963 0.0206009 0.00158231 0.0515513 0.0205582 0.000808822 0.0549637 0.0205294 
0.000917144 0.0513637 0.0217368 0.00394624 0.0523203 0.0219569 0.000763318 0.0556797 0.021808 
0.00968543 0.0503089 0.0220757 0.0124109 0.0510721 0.0210055 0.0107128 0.0543464 0.020627 
0.0153563 0.0515411 0.0205124 0.0150703 0.0552399 0.02075 0.0130121 0.0534668 0.0215277 
0.0094078 0.0561637 0.0215877 0.0172686 0.0546631 0.021252 0.0234676 0.0532563 0.020671 
0.0196045 0.0558555 0.0212499 0.0225577 0.0564988 0.0212499 0.0234934 0.0551906 0.0205 
0.0234932 0.0520677 0.020543 0.0227484 0.0548548 0.0218894 0.0186926 0.0515753 0.0218861 
0.0234274 0.0499129 0.020619 0.0010918 0.0587217 0.0205136 0.00164247 0.0603583 0.0215561 
0.00332088 0.0623177 0.0210007 0.00132675 0.0627514 0.0215814 0.00735799 0.0632353 0.0212539 
0.00483309 0.0574357 0.0213808 0.0110619 0.0632502 0.0205469 0.0113677 0.0616411 0.02075 
0.013287 0.0590343 0.0215669 0.0126393 0.0560805 0.0220081 0.0100155 0.0609038 0.0210294 
0.0157644 0.0574278 0.0218628 0.013475 0.0622502 0.0219503 0.0114177 0.0635577 0.0216097 
0.022785 0.0587282 0.0214661 0.0232751 0.0608526 0.0205 0.0217861 0.0592936 0.0205 
0.016983 0.058033 0.0207555 0.0191444 0.0628163 0.0223233 0.0216142 0.0598234 0.0213881 
0.0233363 0.06201 0.0205086 0.0206551 0.0592539 0.0213283 0.017791 0.060369 0.0205628 
0.0166796 0.0602549 0.0205573 0.0180414 0.0581356 0.0224562 0.0201445 0.0579578 0.0211997 
0.0036657 0.0667805 0.0205308 0.000736723 0.0645171 0.0207962 0.00237987 0.0677863 0.0205798 
0.00740028 0.0696181 0.0219396 0.00075893 0.0660068 0.0211122 0.00154293 0.0676978 0.0221329 
0.00300575 0.0701494 0.0223835 0.00721135 0.0669087 0.0223498 0.0160129 0.0683568 0.0205 
0.0104683 0.0668061 0.021007 0.00882532 0.0657469 0.0219488 0.0123033 0.0657031 0.0217515 
0.00913369 0.0680895 0.0211903 0.0112801 0.0707425 0.0207944 0.0158688 0.0641395 0.0224167 
0.0167717 0.0676706 0.0212819 0.0228345 0.0672142 0.02075 0.0202126 0.0678343 0.020501 
0.0234613 0.0687724 0.0205 0.0225349 0.0691719 0.0205411 0.0204796 0.0667837 0.0205 
0.0169395 0.0706362 0.0205 0.0207008 0.0704002 0.0217499 0.021568 0.0680918 0.0208095 
0.0173742 0.0661652 0.0205 0.0232863 0.0696901 0.0213165 0.0209718 0.0666922 0.02235 
0.0229343 0.0695816 0.0225603 0.0231992 0.0659686 0.0216783 0.0178941 0.0683663 0.0230279 
0.0177117 0.0665782 0.022457 0.0191453 0.0671007 0.0225586 0.00759928 0.0727666 0.0215271 
0.00199261 0.0738248 0.0205148 0.00275897 0.0709792 0.0207413 0.00260347 0.0767241 0.0209999 
0.000543708 0.0755368 0.0207972 0.00770095 0.0750845 0.0207536 0.000829151 0.0772373 0.0211749 
0.00568872 0.0752954 0.0212614 0.00750196 0.0764223 0.020501 0.00218889 0.0748156 0.0211018 
0.00130493 0.0709411 0.0211385 0.00183461 0.0770439 0.0222466 0.00968362 0.0710951 0.0205162 
0.0138671 0.0774925 0.0204998 0.00933954 0.0756518 0.0205 0.013622 0.0768295 0.0218226 
0.0118701 0.0774689 0.0208054 0.0114145 0.0755901 0.0221868 0.00993109 0.0772435 0.021784 
0.00898719 0.07402 0.0205956 0.0157272 0.0774913 0.022303 0.0155037 0.077179 0.02075 
0.010025 0.0768865 0.0205365 0.00974234 0.074565 0.0211207 0.0110085 0.073603 0.0219282 
0.0103323 0.0758473 0.0205083 0.0106112 0.0719028 0.0212613 0.015553 0.0716846 0.0219265 
0.0109361 0.0723618 0.0222729 0.0222726 0.0734722 0.0209995 0.0234925 0.0768744 0.0206907 
0.0209184 0.0748868 0.0207699 0.00528359 0.000750166 0.0288363 0.00191079 0.00150017 0.0235216 
0.00303815 0.00241128 0.0272837 0.00553587 0.00338682 0.0242253 0.000515427 0.00125029 0.0249656 
0.000884707 0.000877032 0.0290922 0.00722851 0.0048335 0.0228873 0.000815179 0.00328201 0.0258692 
0.00694851 0.000990539 0.0292303 0.00653843 0.00421301 0.0252721 0.00826539 0.00124403 0.0267776 
0.0139237 0.00483614 0.0287601 0.0100288 0.00413337 0.0228487 0.00837161 0.000939347 0.0234626 
0.00878499 0.00423102 0.0231499 0.0116878 0.00201196 0.0225969 0.00934252 0.000499381 0.0278778 
0.012632 0.0039755 0.0234898 0.0101769 0.000908031 0.0268241 0.0107098 0.00195301 0.0284102 
0.014457 0.00649586 0.0279358 0.015162 0.00195449 0.0234144 0.0119565 0.00253837 0.0256893 
0.013487 0.00130168 0.0287518 0.0133708 0.000621106 0.0260736 0.0189265 0.00183418 0.0235996 
[...]
POINT_DATA 647
FIELD FieldData 7
id 1 647 int
324 448 199 25 32 100 395 213 474 
282 590 176 51 178 161 155 159 204 
219 126 108 333 142 200 340 123 228 
274 360 64 380 89 442 490 527 75 
581 368 588 592 97 217 275 289 307 
46 10 501 153 80 556 318 233 636 
311 171 190 319 57 143 452 192 185 
209 544 33 6 113 98 154 44 121 
13 137 439 174 287 110 30 62 252 
342 71 591 189 465 293 49 78 308 
231 330 41 139 146 70 482 12 180 
337 260 43 1 118 42 272 130 512 
582 279 628 162 36 249 259 534 522 
60 451 269 348 386 405 505 54 152 
433 91 626 400 345 261 198 374 353 
640 547 354 3 122 423 347 265 535 
366 402 138 328 410 309 514 453 242 
268 394 285 489 415 331 361 496 567 
357 525 378 487 276 40 88 335 367 
533 403 485 73 112 168 470 526 573 
8 244 165 254 94 264 379 421 105 
381 7 226 346 431 147 133 306 227 
24 48 186 45 84 179 222 67 530 
445 332 263 86 216 396 540 129 81 
414 484 493 502 455 181 157 104 271 
313 158 18 225 255 355 469 150 38 
299 76 351 464 558 243 629 135 235 
325 387 26 473 358 595 408 39 257 
14 134 239 163 9 404 102 52 418 
280 117 65 612 635 82 20 187 210 
149 182 69 443 101 215 167 565 288 
87 125 79 195 72 29 435 141 498 
173 277 206 563 605 606 398 329 93 
481 596 291 388 466 300 151 561 28 
220 599 170 542 362 364 370 148 34 
507 524 16 47 459 598 15 241 31 
160 17 92 273 202 136 322 518 2 
281 5 577 604 486 256 390 427 447 
569 392 320 583 509 156 613 115 515 
61 164 549 571 572 625 66 372 290 
77 106 365 419 432 211 538 334 172 
323 35 401 488 237 175 436 208 188 
59 296 450 463 631 578 120 212 90 
109 600 548 19 223 503 508 529 550 
245 576 315 286 399 587 230 476 611 
585 350 238 369 523 557 566 623 639 
278 99 145 382 338 483 430 543 479 
412 55 236 638 247 343 425 494 500 
597 617 624 627 594 124 553 304 144 
221 416 457 492 607 609 472 537 316 
375 462 506 519 545 551 579 603 620 
11 441 305 570 615 521 641 326 471 
517 406 384 426 580 584 504 554 397 
37 196 495 95 428 520 444 371 424 
454 467 201 621 608 74 536 602 499 
409 614 475 251 510 373 446 601 634 
637 327 301 491 574 610 618 531 642 
586 218 456 303 321 193 258 349 411 
480 564 633 116 383 107 417 314 232 
205 96 103 140 270 194 352 53 532 
344 619 438 114 359 413 497 562 632 
250 341 63 191 131 461 477 478 541 
593 616 356 56 119 267 184 4 132 
183 422 437 528 363 546 555 214 302 
376 68 339 511 552 575 589 169 246 
224 266 336 297 317 377 385 429 630 
197 229 284 203 295 50 22 127 283 
468 513 539 559 560 568 262 622 449 
420 407 292 128 248 23 298 393 516 
434 207 111 58 177 440 294 312 310 
240 85 389 458 21 234 27 166 83 
253 391 460 643 644 645 646 647 
type 1 647 int
1 1 1 1 1 1 1 1 1 
1 1 1 1 1 1 1 1 1 
1 1 1 1 1 1 1 1 1 
1 1 1 1 1 1 1 1 1 
1 1 1 1 1 1 1 1 1 
1 1 1 1 1 1 1 1 1 
1 1 1 1 1 1 1 1 1 
1 1 1 1 1 1 1 1 1 
1 1 1 1 1 1 1 1 1 
1 1 1 1 1 1 1 1 1 
1 1 1 1 1 1 1 1 1 
1 1 1 1 1 1 1 1 1 
1 1 1 1 1 1 1 1 1 
1 1 1 1 1 1 1 1 1 
1 1 1 1 1 1 1 1 1 
1 1 1 1 1 1 1 1 1 
1 1 1 1 1 1 1 1 1 
1 1 1 1 1 1 1 1 1 
1 1 1 1 1 1 1 1 1 
1 1 1 1 1 1 1 1 1 
1 1 1 1 1 1 1 1 1 
1 1 1 1 1 1 1 1 1 
1 1 1 1 1 1 1 1 1 
1 1 1 1 1 1 1 1 1 
1 1 1 1 1 1 1 1 1 
1 1 1 1 1 1 1 1 1 
1 1 1 1 1 1 1 1 1 
1 1 1 1 1 1 1 1 1 
1 1 1 1 1 1 1 1 1 
1 1 1 1 1 1 1 1 1 
1 1 1 1 1 1 1 1 1 
1 1 1 1 1 1 1 1 1 
1 1 1 1 1 1 1 1 1 
1 1 1 1 1 1 1 1 1 
1 1 1 1 1 1 1 1 1 
1 1 1 1 1 1 1 1 1 
1 1 1 1 1 1 1 1 1 
1 1 1 1 1 1 1 1 1 
1 1 1 1 1 1 1 1 1 
1 1 1 1 1 1 1 1 1 
1 1 1 1 1 1 1 1 1 
1 1 1 1 1 1 1 1 1 
1 1 1 1 1 1 1 1 1 
1 1 1 1 1 1 1 1 1 
1 1 1 1 1 1 1 1 1 
1 1 1 1 1 1 1 1 1 
1 1 1 1 1 1 1 1 1 
1 1 1 1 1 1 1 1 1 
1 1 1 1 1 1 1 1 1 
1 1 1 1 1 1 1 1 1 
1 1 1 1 1 1 1 1 1 
1 1 1 1 1 1 1 1 1 
1 1 1 1 1 1 1 1 1 
1 1 1 1 1 1 1 1 1 
1 1 1 1 1 1 1 1 1 
1 1 1 1 1 1 1 1 1 
1 1 1 1 1 1 1 1 1 
1 1 1 1 1 1 1 1 1 
1 1 1 1 1 1 1 1 1 
1 1 1 1 1 1 1 1 1 
1 1 1 1 1 1 1 1 1 
1 1 1 1 1 1 1 1 1 
1 1 1 1 1 1 1 1 1 
1 1 1 1 1 1 1 1 1 
1 1 1 1 1 1 1 1 1 
1 1 1 1 1 1 1 1 1 
1 1 1 1 1 1 1 1 1 
1 1 1 1 1 1 1 1 1 
1 1 1 1 1 1 1 1 1 
1 1 1 1 1 1 1 1 1 
1 1 1 1 1 1 1 1 1 
1 1 1 1 1 1 1 1 
i 3 647 int
0 0 0 0 0 0 0 0 0 
0 0 0 0 0 0 0 0 0 
0 0 0 0 0 0 0 0 0 
0 0 0 0 0 0 0 0 0 
0 0 0 0 0 0 0 0 0 
0 0 0 0 0 0 0 0 0 
0 0 0 0 0 0 0 0 0 
0 0 0 0 0 0 0 0 0 
0 0 0 0 0 0 0 0 0 
0 0 0 0 0 0 0 0 0 
0 0 0 0 0 0 0 0 0 
0 0 0 0 0 0 0 0 0 
0 0 0 0 0 0 0 0 0 
0 0 0 0 0 0 0 0 0 
0 0 0 0 0 0 0 0 0 
0 0 0 0 0 0 0 0 0 
0 0 0 0 0 0 0 0 0 
0 0 0 0 0 0 0 0 0 
0 0 0 0 0 0 0 0 0 
0 0 0 0 0 0 0 0 0 
0 0 0 0 0 0 0 0 0 
0 0 0 0 0 0 0 0 0 
0 0 0 0 0 0 0 0 0 
0 0 0 0 0 0 0 0 0 
0 0 0 0 0 0 0 0 0 
0 0 0 0 0 0 0 0 0 
0 0 0 0 0 0 0 0 0 
0 0 0 0 0 0 0 0 0 
0 0 0 0 0 0 0 0 0 
0 0 0 0 0 0 0 0 0 
0 0 0 0 0 0 0 0 0 
0 0 0 0 0 0 0 0 0 
0 0 0 0 0 0 0 0 0 
0 0 0 0 0 0 0 0 0 
0 0 0 0 0 0 0 0 0 
0 0 0 0 0 0 0 0 0 
0 0 0 0 0 0 0 0 0 
0 0 0 0 0 0 0 0 0 
0 0 0 0 0 0 0 0 0 
0 0 0 0 0 0 0 0 0 
0 0 0 0 0 0 0 0 0 
0 0 0 0 0 0 0 0 0 
0 0 0 0 0 0 0 0 0 
0 0 0 0 0 0 0 0 0 
0 0 0 0 0 0 0 0 0 
0 0 0 0 0 0 0 0 0 
0 0 0 0 0 0 0 0 0 
0 0 0 0 0 0 0 0 0 
0 0 0 0 0 0 0 0 0 
0 0 0 0 0 0 0 0 0 
0 0 0 0 0 0 0 0 0 
0 0 0 0 0 0 0 0 0 
0 0 0 0 0 0 0 0 0 
0 0 0 0 0 0 0 0 0 
0 0 0 0 0 0 0 0 0 
0 0 0 0 0 0 0 0 0 
0 0 0 0 0 0 0 0 0 
0 0 0 0 0 0 0 0 0 
0 0 0 0 0 0 0 0 0 
0 0 0 0 0 0 0 0 0 
0 0 0 0 0 0 0 0 0 
0 0 0 0 0 0 0 0 0 
0 0 0 0 0 0 0 0 0 
0 0 0 0 0 0 0 0 0 
0 0 0 0 0 0 0 0 0 
0 0 0 0 0 0 0 0 0 
0 0 0 0 0 0 0 0 0 
0 0 0 0 0 0 0 0 0 
0 0 0 0 0 0 0 0 0 
0 0 0 0 0 0 0 0 0 
0 0 0 0 0 0 0 0 0 
0 0 0 0 0 0 0 0 0 
0 0 0 0 0 0 0 0 0 
0 0 0 0 0 0 0 0 0 
0 0 0 0 0 0 0 0 0 
0 0 0 0 0 0 0 0 0 
0 0 0 0 0 0 0 0 0 
0 0 0 0 0 0 0 0 0 
0 0 0 0 0 0 0 0 0 
0 0 0 0 0 0 0 0 0 
0 0 0 0 0 0 0 0 0 
0 0 0 0 0 0 0 0 0 
0 0 0 0 0 0 0 0 0 
0 0 0 0 0 0 0 0 0 
0 0 0 0 0 0 0 0 0 
0 0 0 0 0 0 0 0 0 
0 0 0 0 0 0 0 0 0 
0 0 0 0 0 0 0 0 0 
0 0 0 0 0 0 0 0 0 
0 0 0 0 0 0 0 0 0 
0 0 0 0 0 0 0 0 0 
0 0 0 0 0 0 0 0 0 
0 0 0 0 0 0 0 0 0 
0 0 0 0 0 0 0 0 0 
0 0 0 0 0 0 0 0 0 
0 0 0 0 0 0 0 0 0 
0 0 0 0 0 0 0 0 0 
0 0 0 0 0 0 0 0 0 
0 0 0 0 0 0 0 0 0 
0 0 0 0 0 0 0 0 0 
0 0 0 0 0 0 0 0 0 
0 0 0 0 0 0 0 0 0 
0 0 0 0 0 0 0 0 0 
0 0 0 0 0 0 0 0 0 
0 0 0 0 0 0 0 0 0 
0 0 0 0 0 0 0 0 0 
0 0 0 0 0 0 0 0 0 
0 0 0 0 0 0 0 0 0 
0 0 0 0 0 0 0 0 0 
0 0 0 0 0 0 0 0 0 
0 0 0 0 0 0 0 0 0 
0 0 0 0 0 0 0 0 0 
0 0 0 0 0 0 0 0 0 
0 0 0 0 0 0 0 0 0 
0 0 0 0 0 0 0 0 0 
0 0 0 0 0 0 0 0 0 
0 0 0 0 0 0 0 0 0 
0 0 0 0 0 0 0 0 0 
0 0 0 0 0 0 0 0 0 
0 0 0 0 0 0 0 0 0 
0 0 0 0 0 0 0 0 0 
0 0 0 0 0 0 0 0 0 
0 0 0 0 0 0 0 0 0 
0 0 0 0 0 0 0 0 0 
0 0 0 0 0 0 0 0 0 
0 0 0 0 0 0 0 0 0 
0 0 0 0 0 0 0 0 0 
0 0 0 0 0 0 0 0 0 
0 0 0 0 0 0 0 0 0 
0 0 0 0 0 0 0 0 0 
0 0 0 0 0 0 0 0 0 
0 0 0 0 0 0 0 0 0 
0 0 0 0 0 0 0 0 0 
0 0 0 0 0 0 0 0 0 
0 0 0 0 0 0 0 0 0 
0 0 0 0 0 0 0 0 0 
0 0 0 0 0 0 0 0 0 
0 0 0 0 0 0 0 0 0 
0 0 0 0 0 0 0 0 0 
0 0 0 0 0 0 0 0 0 
0 0 0 0 0 0 0 0 0 
0 0 0 0 0 0 0 0 0 
0 0 0 0 0 0 0 0 0 
0 0 0 0 0 0 0 0 0 
0 0 0 0 0 0 0 0 0 
0 0 0 0 0 0 0 0 0 
0 0 0 0 0 0 0 0 0 
0 0 0 0 0 0 0 0 0 
0 0 0 0 0 0 0 0 0 
0 0 0 0 0 0 0 0 0 
0 0 0 0 0 0 0 0 0 
0 0 0 0 0 0 0 0 0 
0 0 0 0 0 0 0 0 0 
0 0 0 0 0 0 0 0 0 
0 0 0 0 0 0 0 0 0 
0 0 0 0 0 0 0 0 0 
0 0 0 0 0 0 0 0 0 
0 0 0 0 0 0 0 0 0 
0 0 0 0 0 0 0 0 0 
0 0 0 0 0 0 0 0 0 
0 0 0 0 0 0 0 0 0 
0 0 0 0 0 0 0 0 0 
0 0 0 0 0 0 0 0 0 
0 0 0 0 0 0 0 0 0 
0 0 0 0 0 0 0 0 0 
0 0 0 0 0 0 0 0 0 
0 0 0 0 0 0 0 0 0 
0 0 0 0 0 0 0 0 0 
0 0 0 0 0 0 0 0 0 
0 0 0 0 0 0 0 0 0 
0 0 0 0 0 0 0 0 0 
0 0 0 0 0 0 0 0 0 
0 0 0 0 0 0 0 0 0 
0 0 0 0 0 0 0 0 0 
0 0 0 0 0 0 0 0 0 
0 0 0 0 0 0 0 0 0 
0 0 0 0 0 0 0 0 0 
0 0 0 0 0 0 0 0 0 
0 0 0 0 0 0 0 0 0 
0 0 0 0 0 0 0 0 0 
0 0 0 0 0 0 0 0 0 
0 0 0 0 0 0 0 0 0 
0 0 0 0 0 0 0 0 0 
0 0 0 0 0 0 0 0 0 
0 0 0 0 0 0 0 0 0 
0 0 0 0 0 0 0 0 0 
0 0 0 0 0 0 0 0 0 
0 0 0 0 0 0 0 0 0 
0 0 0 0 0 0 0 0 0 
0 0 0 0 0 0 0 0 0 
0 0 0 0 0 0 0 0 0 
0 0 0 0 0 0 0 0 0 
0 0 0 0 0 0 0 0 0 
0 0 0 0 0 0 0 0 0 
0 0 0 0 0 0 0 0 0 
0 0 0 0 0 0 0 0 0 
0 0 0 0 0 0 0 0 0 
0 0 0 0 0 0 0 0 0 
0 0 0 0 0 0 0 0 0 
0 0 0 0 0 0 0 0 0 
0 0 0 0 0 0 0 0 0 
0 0 0 0 0 0 0 0 0 
0 0 0 0 0 0 0 0 0 
0 0 0 0 0 0 0 0 0 
0 0 0 0 0 0 0 0 0 
0 0 0 0 0 0 0 0 0 
0 0 0 0 0 0 0 0 0 
0 0 0 0 0 0 0 0 0 
0 0 0 0 0 0 0 0 0 
0 0 0 0 0 0 0 0 0 
0 0 0 0 0 0 0 0 0 
0 0 0 0 0 0 0 0 0 
0 0 0 0 0 0 0 0 0 
0 0 0 0 0 0 0 0 0 
0 0 0 0 0 0 0 0 0 
0 0 0 0 0 0 
v 3 647 double
-0.354207 1.44149 -1.22506e-08 0 0 3.33752e-11 2.63375 0.140064 -0.243382 
0.570979 0.569038 0.817535 -1.58977 1.59644 -1.97884e-11 -1.16252 -2.45998 1.13765e-11 
-0.0279751 -2.46181 -1.49879 -0.240336 -2.60146 0.000650087 0 0 -0.0549106 
0 0 -1.73733 0 0 -0.278579 0 0 -2.18662 
1.05457 0.583431 -2.62048e-11 -2.0113 0.0666135 -0.0554925 3.29749 -1.3933 0.229181 
2.51803 1.15264 0.847237 -0.0723871 -3.09127 -0.19727 0.469084 2.88744 -0.0234181 
-0.471344 -2.26359 0.0495278 -0.556871 -1.33398 0.000891271 -0.532619 2.40648 0.301771 
-1.10665 -0.925433 0.294164 -0.00265721 0.84119 -1.92175 -1.22599 -2.98729 0.129918 
-0.0488031 -1.82291 0.0846156 1.06365 -0.37731 -0.471649 0 0 1.59595e-11 
-1.43122 0.011089 0.0630308 0.608786 -0.163175 -0.0656369 2.10099 -0.540238 0.0785667 
2.02011 0.526916 0.087316 0.753774 -0.310825 -1.65937 0 0 1.74563e-11 
1.13697 -1.2985 0.00274595 0 0 -0.585632 0.502327 -3.95605 -0.0118745 
-1.19291 -1.17034 1.39461 0.143751 -7.16635 -2.33268 0 0 -0.289861 
0 0 -0.272939 0 0 -0.375352 0.241155 -3.09117 0.0236891 
-1.7005 -1.52669 0.228928 3.46672 -7.56016 0.970624 -0.117511 -2.49597 0.466347 
0.88621 -2.73088 2.86216e-11 1.89709 2.46286 -9.325e-06 -1.38072 -2.25223 0.104523 
-4.58468 -3.9582 1.29391 4.35375 -0.582836 -2.71937 -0.999108 -2.90328 0.0115124 
1.78143 -0.538687 1.65662 -4.25476 -6.53953 -1.36397 0 0 -0.0784555 
0.510641 -4.35346 -2.1549 -0.160661 1.2119 8.35386e-12 0.314396 -3.78239 0.202672 
4.4185 -2.75312 0.167357 -0.1305 -4.35457 0.067524 -0.153137 -3.50211 -2.64713 
-0.543836 -8.56023 0.237859 -3.20221 -1.51574 0.149829 -1.46697 -0.362471 -0.666527 
-1.78067 -5.93867 -2.55439 0.628002 -0.811663 0.0196481 -0.303768 -5.3671 0.648866 
-0.111761 -4.25364 0.459234 0.841 -5.00957 0.0062606 0.0875482 -3.6283 -1.2096e-05 
0.162603 -7.20864 -0.0197055 0.0967659 -2.09708 1.88146e-11 0.169471 -5.68217 0.171934 
0.275801 -3.43543 -2.89005e-11 0.043262 -3.67555 -3.35377e-11 0.166696 -4.17092 0.147885 
1.26162 -5.22584 -0.920435 0.179895 -2.79385 0.0337145 -2.78663 -1.66743 0.0977546 
4.17846 -7.56512 12.0614 -0.31105 0.768229 0.571468 -0.0540728 -2.64117 -1.54111 
-0.273867 -3.13088 0.696971 4.68103 -5.91235 -1.45615e-12 0.933077 -0.314589 -0.158336 
1.99072 -5.38013 -1.28552 5.39373 -3.18479 -0.274806 2.25107 -4.23348 -0.0266031 
3.38194 -2.10627 0.416721 6.85369 2.30339 0.0310668 5.01523 -2.42885 1.53603 
-0.155129 -1.79396 1.3023e-08 2.57142 0.711712 -1.50204 2.46093 -9.31662 0.752498 
-1.20235 -10.3387 2.80129 -2.14268 -9.88262 -3.38724e-11 -5.18568 -2.52026 1.29369e-12 
0 0 -0.745781 0.570223 -1.48423 -1.38753e-11 0.699609 -0.604496 -0.0095258 
3.62137 20.023 2.17904 -0.780038 -2.72356 -0.000323362 3.10201 -2.58664 -4.8693e-06 
-0.596484 -4.75788 -0.176521 2.3344 -1.60236 -1.6801 -0.053475 0.339979 -0.294531 
-0.0688913 -1.31586 2.05426e-11 -0.269165 -1.52624 0.0913101 0 0 -0.621194 
0 0 -0.307028 -4.20865 -3.41181 0.975688 0 0 -0.112545 
0.00495649 -1.43092 -2.92319e-05 0.0196064 -1.1265 0.00993892 -1.40768 -0.0966334 -0.0483881 
-1.60614 -1.87365 -2.34421e-07 -1.4928 0.095603 -4.33779e-06 -1.99855 -6.2676 0.18509 
-5.16446 5.27266 1.2586 -1.79427 6.78188 0.0730873 -2.07428 -0.678961 0.00559006 
-2.18655 -1.0414 -0.0309771 -3.45096 0.532544 0.577828 -0.873015 0.611048 5.17963e-07 
2.10576 1.17048 5.05995e-06 -2.11725 0.0954491 2.41439e-11 -1.21765 -1.66493 -0.788752 
-6.03127 -5.59466 0.401742 -2.80251 -0.086025 0.0197788 0.589884 5.31013 3.11221 
-0.857564 -2.30478 2.92384e-11 -1.06025 -3.05797 -0.210928 0 0 8.62661e-12 
-1.4523 -2.31394 -1.29336e-08 2.24742 -1.1148 0.00140891 -2.29355 -2.87173 2.05426e-11 
0 0 -0.0585902 -13.8905 11.1502 3.26029 -8.40313 12.9905 1.23753 
-1.7017 1.41846 -1.2483e-07 0.270551 0.451697 3.08776e-12 -0.130496 0.0229042 0.0807973 
0.788792 0.271913 -2.36926 -0.193473 2.03025 0.0441836 0 0 0.0446229 
-3.18326 -0.765936 0.401885 -1.61702 1.69621 1.22492e-05 0 0 -2.71214e-11 
0.368839 0.617255 -2.09978 1.24197 2.20494 1.38436 -0.606003 -0.470204 -0.735084 
0.282059 1.32307 -1.29141 0.0154736 2.20424 0.180066 0 0 -2.80368e-11 
0 0 0.0227241 0 0 1.84537e-11 -2.78369 -2.25824 -0.284055 
-1.01285 -5.06262 1.56461 -1.75778 36.2741 -10.5602 0 0 -1.52003 
-0.353738 0.550024 0.269195 5.90934 3.22823 -3.02954 -0.825317 5.87352 -8.04783 
-1.67285 5.69591 -5.592 0.012422 6.78175 -4.50031 0.456491 -1.0339 -5.13755 
2.05032 9.26264 0.526261 -1.00103 0.615945 -3.99868 -2.56982 10.4659 -0.0524425 
-2.78471 1.41727 -0.0483933 0 0 -4.206e-12 -0.818744 1.23551 -1.21852 
0 0 -0.559391 1.14481 1.75257 0.561038 3.67226 3.15908 -4.64017 
0.24853 4.1419 -0.0292324 -0.156382 4.12545 0.0172077 -0.687742 1.11389 0.0375373 
0 0 -0.813224 -0.89024 0.199165 -0.121539 -1.04026 1.31448 -0.120806 
-2.35516 -0.906038 -0.0187053 0.164011 1.7184 0.285743 0.107745 2.91163 0.162284 
0.19744 3.29121 1.03153e-11 0.000194594 0.660529 1.0513e-08 5.82587 1.23442 -1.92642 
2.89502 0.0651859 0.15083 0.450193 6.07614 0.290883 0.602297 0.412125 0.00231282 
0.785469 -1.45082 2.826 -4.71618 1.62253 0.488997 0.0590239 -0.839576 -3.25086 
1.1465 3.03762 0.453047 1.90405 1.20167 0.0152009 2.66999 7.45027 -0.0739539 
1.18227 -2.53948 -0.0630958 -0.280305 0.357373 -1.12601e-11 -0.387805 2.14384 0.0864779 
0.517799 -1.57594 -0.599407 0.909091 1.43676 0.00224393 1.09258 1.78135 -0.22121 
1.09265 1.50407 -2.55053e-11 -0.303955 3.44955 -0.000446807 -0.0165027 3.38894 -1.06223e-11 
-0.0260197 0.740554 -1.74208 -1.99838 2.5614 -0.431755 -47.2464 -0.701536 27.4004 
-0.314181 -2.6281 0.408631 -0.45941 1.15517 0.353838 0.38099 2.68774 -1.48755 
1.47015 1.01713 0.047447 1.24422 -3.02974 2.1921 0.529719 3.03325 -0.104393 
0.0351778 -0.00649949 -0.641382 1.12484 -0.616416 -2.28566 1.19504 -0.954617 -1.21891e-08 
0 0 -1.12371 36.4905 -33.7055 8.55691 0 0 -0.703598 
-0.940589 0.351898 -0.0147855 -0.0630659 -2.01243 -1.00671 -0.624889 -3.84658 1.54507 
-0.0403764 3.45459 0.0148705 -0.334176 1.89189 -3.77979e-09 -0.806076 2.00484 -0.000939299 
-0.735918 0.462409 0.11094 1.02026 1.46842 0.776805 -1.20699 3.0298 -0.31351 
-0.503836 2.5347 0.0827806 -0.738016 0.42667 -1.65879 2.00864 2.56422 -0.213501 
-0.565168 1.48557 -5.51429 -0.875123 0.49469 0.360312 0.117874 3.39788 -5.76776 
-5.29977 5.89392 -0.161637 0.751928 -0.983465 0.785476 -0.338573 3.28574 0.363146 
2.06176 3.50991 -0.142866 0.118929 -2.68338 0.730701 -1.11576 1.70708 -2.44795 
0 0 -0.108621 -1.22757 1.27298 -1.6562 0.599416 1.39987 -1.15389e-11 
1.43098 1.47318 -1.64814 0.831464 2.37445 0.555496 -2.91596 -1.03254 0.162817 
0.10131 0.513707 -1.211 2.93368 1.33323 -3.02608 0 0 -0.256016 
0.966347 2.01593 0.29215 0.676943 3.17908 -4.45622e-11 1.00145 3.38515 -0.00590371 
1.96583 1.88716 -0.0053747 0.949953 0.796607 0.113745 -0.947344 1.88896 6.3341e-07 
0.00436618 1.71987 -6.95584e-12 2.82431 3.30707 0.0032203 0.298206 2.98633 -0.738949 
0.101408 0.583044 0.00014949 3.00817 0.948939 -0.109885 13.1288 10.3193 9.95422 
3.35377 5.08682 1.85443 -0.150868 2.19657 -0.376953 -20.6433 28.2516 9.94253 
-2.41339 -0.312269 0.440897 -10.2784 13.4299 1.20726 3.91392 3.79723 0.312678 
1.87457 0.49441 0.0411438 2.22788 -0.554022 -1.38711 0.537999 -0.642355 -0.0537236 
0.125186 5.06069 0.220638 2.63699 4.37368 -0.000948163 0.220241 -0.0402957 -0.862826 
0.755834 2.3728 0.349546 -0.420259 5.33884 0.0382128 3.33142 0.677801 2.37889 
0.118552 -5.20806 -6.24001 0.495127 0.114363 -0.88464 -0.699235 1.95671 -0.0306082 
-0.208792 0.0856942 -0.00560259 -2.3038 -0.25232 9.40074e-07 -1.69039 -0.95768 -0.840638 
1.11243 -0.219304 -1.53469 -2.49132 0.327437 -0.105811 -3.11944 -0.180947 -1.10761 
2.27137 3.7869 -2.74118 0.689626 -0.0392063 3.21142 0.155902 2.83366 -9.70555e-07 
-1.19648 2.12994 0.276277 1.77822 5.79838 -2.56945 1.12548 -1.08628 -1.43316 
-2.44513 1.00898 -0.342272 0 0 -0.198873 9.46503 -2.6244 4.747 
4.79066 3.40047 -3.23753 0.0625599 4.09211 -0.0320862 -0.0148276 5.06446 0.0393548 
0 0 -0.746026 -6.35194 -0.38786 23.6173 0.485396 0.00580395 -1.02195 
1.97657 -3.1023 -2.00531 -3.70574 0.639095 1.27634 0.272217 -7.1368 -1.42788 
-8.68951 0.659153 -0.680312 0 0 -0.409052 0.447096 -6.71819 -7.9764 
16.3578 3.71267 -0.947121 0.0676159 0.502783 0.469586 1.87381 -0.102974 0.00627589 
8.85741 3.35083 -2.36201 0 0 -1.37362 0.122256 -2.29386 -4.4613 
0 0 -1.33953 0.795877 1.72027 -5.95404 1.0949 -0.406211 2.33566 
0 0 -0.653076 0.795397 0.535994 2.83803 -5.27176 2.94296 -1.74686 
8.94532 5.52172 1.46016 0.394191 0.793997 1.17472 0 0 -0.246942 
-11.8243 1.11044 -1.15774 -13.1923 0.368525 0.327734 2.41469 0.667708 -0.810119 
-0.432558 0.144945 0.0509071 -0.0502099 -0.406678 -1.70906 -0.799347 -1.71929 0.00570968 
-0.0871402 -0.664413 -0.591612 -0.038005 1.57977 -1.22468 0.461636 -0.55469 -1.02892 
-4.34179 -0.273958 0.0846113 -1.49965 0.201735 -3.50006 -1.40733 0.170643 -1.83438 
-1.41147 -2.89869 -3.82828 -5.74167 0.722416 -0.499137 0.535639 -0.136115 -3.8601 
0 0 -0.206966 -0.291484 1.25538 0.100552 0 0 -1.85088 
0 0 -1.2223 0 0 -1.04474 0 0 -0.973127 
0 0 -0.36221 -3.91223 -1.2161 -4.20313 -10.4314 -5.3561 -0.774452 
0 0 -18.3294 2.09114 -19.9128 6.67908 -7.69947 -10.0672 0.309101 
5.53078 -11.267 17.5553 1.87319 1.4313 -0.810108 -4.09196 -7.68591 1.07034 
6.91937 -3.90466 -3.90993 -9.38448 -21.9547 28.8591 0 0 -0.480911 
-1.97363 -4.97966 -0.770991 11.4067 -24.6829 12.3609 1.71284 1.88518 8.82889 
-1.40641 -5.35913 2.04632 12.0407 -7.00736 1.05901 1.80799 -5.33772 0.31278 
-2.75159 -2.96976 -1.20221 -1.0619 -3.51167 0.811042 0.383431 -4.84535 0.937506 
3.51666 -0.456478 1.03077 0.839173 -1.34146 1.01092 2.78744 -12.8633 2.88657 
0.320054 -0.151526 0.51078 0.690671 -4.70453 2.82839 -0.233331 -3.81439 0.297863 
0.218572 -3.97825 0.501685 -1.27229 -1.84219 -0.319816 0.499336 -0.199516 -2.60369 
0.256094 -3.83001 1.29184 -1.5772 -2.81637 1.58624 0.572303 -12.0096 -5.4413 
10.6443 -13.88 -4.73217 -5.13042 -9.98357 -0.0973041 0.414332 -1.55776 0.85555 
0.753411 -0.182465 -0.00331824 -10.8277 1.70064 -5.61493 0 0 -0.947376 
-4.20109 -1.81249 -0.283279 33.4911 -4.14379 37.1881 29.5817 -8.32856 13.4579 
2.18331 1.0293 1.50892 -2.7862 0.174559 1.28828 26.3387 -8.66939 -2.75856 
-1.8198 -5.2597 -0.770784 -3.51731 3.98558 6.54551 -7.92606 2.05599 13.9421 
2.28484 -2.7714 -3.10479 -1.02992 -2.66421 -2.2647 -0.574097 -0.332567 6.77581 
0 0 -0.644738 -3.34745 -0.703137 -4.46663 2.30988 2.34651 3.1342 
-2.33328 -3.19412 -1.00761 -2.06787 -0.48876 -2.1368 1.48924 1.94543 -0.821626 
-28.9292 -8.72094 -8.98765 -33.5378 -13.6735 -4.25948 -31.3719 1.35648 -1.93832 
-28.0053 165.355 -24.2564 -3.7776 0.239768 -1.1542 0 0 -0.17582 
5.30254 -14.9799 -0.526655 0.997328 -3.61671 -4.14222 -0.573316 -1.56878 -2.832 
-6.95751 -11.4355 -0.903673 0 0 -0.595933 -0.0890866 0.0837327 -0.325058 
-0.544074 0.481608 -0.976392 0 0 -0.146635 0 0 -0.060307 
3.93271 10.3125 -2.56975 0.320211 11.2319 -0.132083 2.60661 9.16739 -7.19587 
-0.216469 0.216763 0.412239 0.152281 0.233281 0.71129 0.0241783 -1.28698 0.114157 
0.360757 -2.4194 2.69488 -4.57687 4.28185 -0.492729 1.58857 -12.6116 5.56651 
-8.20175 -0.077313 -1.42827 -10.526 11.4602 -2.53648 -3.65919 6.48317 1.43226 
0 0 -0.0637405 1.52201 5.10321 -1.30347 6.38502 1.52968 -1.08063 
4.17219 0.100554 3.65818 -3.08502 -1.98438 0.235813 5.87157 -5.09946 -0.826619 
0 0 -0.252092 0 0 -0.165029 0 0 -0.142956 
0 0 -0.113036 -0.6619 11.7512 -5.28599 -0.153053 19.4232 -1.23937 
-3.57938 10.0657 -2.80015 -0.554711 11.4038 -5.56577 -1.01774 -1.94977 -0.293856 
-2.39214 -2.0589 -0.571886 -1.80558 1.70459 -1.26174 -3.18883 13.1051 -0.396322 
0 0 -0.705805 -3.28039 16.0253 4.28708 0 0 -0.187101 
6.82106 1.62461 -0.182926 -3.73461 1.07632 -2.59902 -0.229041 3.81312 -1.52385 
2.93992 -4.20296 -0.378353 3.17942 1.86785 1.57868 -1.17234 -1.75479 2.64991 
0 0 -0.607705 -0.72833 4.89163 -1.06684 -3.92545 -0.615056 0.383962 
0 0 -0.317084 0 0 -0.212362 0 0 -0.15203 
7.54224 11.7695 -2.56937 -1.00228 1.97472 0.414895 1.81967 2.22713 2.83983 