# vtk DataFile Version 4.0
Generated by LIGGGHTS
ASCII
DATASET POLYDATA
POINTS 1440 float
0.00750542 0.00381215 0.0219995 0.00278931 0.00150485 0.0215 0.000523375 0.000540869 0.0205 
0.0056643 0.00200771 0.0207919 0.0054022 0.000506985 0.0205036 0.00444955 0.00204184 0.0204998 
0.000596739 0.00158604 0.0205 0.00367298 0.00301391 0.0205 0.000508977 0.000527442 0.0217774 
0.00100023 0.00317812 0.021 0.00504104 0.00313131 0.0205 0.00439452 0.00052621 0.0205 
0.000500005 0.00450104 0.0205 0.00050896 0.00546176 0.0207774 0.00759858 0.0059812 0.0207365 
0.00479262 0.00178285 0.0216822 0.00556518 0.000743872 0.0214671 0.00346905 0.00515365 0.0223855 
0.0015201 0.00561772 0.0205 0.00458627 0.000638111 0.0216619 0.000572288 0.00575643 0.0217342 
0.00695211 0.00123786 0.0207519 0.00651683 0.000500263 0.0216636 0.0062561 0.00643792 0.0212608 
0.00754517 0.000503969 0.0215764 0.0076859 0.00696745 0.0205 0.00152221 0.00686463 0.02075 
0.00873895 0.00652029 0.0204995 0.00849716 0.00554878 0.0204998 0.00841772 0.00675087 0.0223278 
0.00955887 0.00386618 0.0205006 0.0120911 0.00183154 0.0205008 0.0113343 0.00248533 0.0205 
0.0141162 0.000791308 0.02075 0.0111087 0.00147051 0.0205 0.0108376 0.000503347 0.0205 
0.0128711 0.000504381 0.0205047 0.0118221 0.000682359 0.0205057 0.00983708 0.000501339 0.0205002 
0.00846864 0.000839428 0.0207502 0.0105472 0.00310443 0.0205027 0.0131064 0.0019904 0.0205 
0.00991037 0.00172582 0.0207498 0.0105345 0.00414445 0.0204995 0.0116529 0.00588518 0.0205001 
0.0101749 0.00373478 0.0214474 0.0121868 0.00395142 0.0216088 0.00883667 0.00231753 0.0205006 
0.010648 0.000771967 0.0217086 0.0133593 0.00517073 0.0204999 0.00894942 0.00181468 0.0215808 
0.010073 0.00567326 0.02125 0.0130422 0.00654877 0.0210003 0.014564 0.00572213 0.0207499 
0.00962467 0.0029541 0.0209413 0.0138208 0.00426828 0.0205 0.0148668 0.00472161 0.021435 
0.0146948 0.00288272 0.0212498 0.00804355 0.00134611 0.0218127 0.0117125 0.00648012 0.022139 
0.00945746 0.000501433 0.021437 0.0126194 0.00126257 0.0220692 0.0156619 0.000761128 0.02075 
0.0100366 0.00241481 0.0220773 0.0232504 0.000749818 0.0207499 0.0225619 0.00331095 0.0204999 
0.0234981 0.00366925 0.0205 0.0215368 0.000999818 0.0209995 0.0232499 0.00454289 0.0219516 
0.0232494 0.00225187 0.0207499 0.0211128 0.00364979 0.0207507 0.0223492 0.00451982 0.0207521 
0.0234982 0.00516563 0.0205 0.0204152 0.00232155 0.02075 0.0166221 0.00447445 0.0212495 
0.0175875 0.00169789 0.0214999 0.0228941 0.00102685 0.0224963 0.0222873 0.00307791 0.0219559 
0.0180603 0.00340311 0.0205063 0.0188963 0.0048949 0.0209999 0.0232162 0.00601988 0.0214974 
0.0178787 0.00600622 0.0219445 0.0192343 0.00317991 0.0211024 0.0207504 0.0042572 0.0220752 
0.0175263 0.0061983 0.02075 0.0208452 0.00643226 0.0214999 0.0228152 0.00665823 0.0205 
0.0187602 0.00648078 0.0212383 0.0225587 0.00545636 0.0224555 0.00330641 0.00758917 0.0205 
0.00635748 0.0135808 0.0205 0.00501754 0.00889049 0.0205 0.00627217 0.0110081 0.020756 
0.00512372 0.0108721 0.0214064 0.000595305 0.00898742 0.0205 0.000581649 0.00723185 0.0216075 
0.00724715 0.00787487 0.0205003 0.000671153 0.0102111 0.0205 0.00479476 0.0126667 0.0207499 
0.00668383 0.0126672 0.0221173 0.00672342 0.00883163 0.021112 0.00519045 0.0118493 0.0216083 
0.00265545 0.011444 0.0219999 0.00710125 0.00743323 0.0220333 0.000607895 0.0118968 0.0205 
0.00740506 0.0137409 0.0205 0.00225141 0.00929466 0.0207611 0.00211027 0.0133675 0.0204996 
0.000525042 0.0129637 0.0219837 0.0047376 0.012945 0.0219802 0.00301024 0.0138024 0.0205234 
0.00384115 0.0138911 0.0215111 0.00803665 0.00830934 0.0216271 0.00824605 0.00781169 0.0204999 
0.0113973 0.00709133 0.0207504 0.00833332 0.010539 0.0215583 0.0128781 0.0102739 0.02075 
0.00944597 0.00769093 0.0208298 0.0157422 0.010712 0.0209999 0.0122787 0.0116531 0.02075 
0.0110982 0.0111557 0.0205 0.0152695 0.0122365 0.0205 0.0135537 0.0113671 0.0205 
0.0110452 0.00916677 0.0215501 0.0129411 0.00801144 0.0219576 0.0100308 0.0105359 0.0205001 
0.0144207 0.0112864 0.0214682 0.0145497 0.0115187 0.0205 0.010714 0.0119152 0.0215039 
0.00827812 0.00881894 0.0205 0.00974557 0.011496 0.0205034 0.0156905 0.00788819 0.0220182 
0.00845433 0.0127826 0.02075 0.0137592 0.0131734 0.0215021 0.0112927 0.012378 0.0205 
0.0100899 0.0126918 0.0207496 0.0111383 0.013097 0.0213461 0.0155357 0.0119763 0.0221921 
0.0120324 0.0130517 0.0205 0.0114312 0.0112643 0.0222938 0.0102814 0.0110192 0.0217155 
0.0144785 0.0101089 0.0222676 0.0110047 0.0137044 0.0205031 0.0119529 0.0139303 0.0209705 
0.0130481 0.0106224 0.0224825 0.0163209 0.01401 0.0205 0.0214988 0.00803853 0.0205 
0.0229734 0.00850511 0.0209999 0.0183859 0.0106515 0.0217687 0.0206251 0.0108999 0.0217803 
0.0211736 0.00943955 0.021 0.017656 0.00839492 0.0205 0.0204289 0.00822994 0.0205001 
0.0195195 0.0077968 0.0204999 0.0228934 0.0105045 0.0210006 0.01664 0.0126321 0.0209999 
0.0198661 0.00845556 0.0216334 0.0202407 0.0105038 0.0205 0.0184921 0.00793396 0.021333 
0.0171193 0.0092834 0.0205071 0.0209037 0.012476 0.0205 0.0212871 0.0111707 0.0207513 
0.0234889 0.0117922 0.0205019 0.0234852 0.00958228 0.0220251 0.0218008 0.00815989 0.0218692 
0.0232496 0.0119158 0.0219753 0.0201194 0.0116451 0.0205 0.0223353 0.0122439 0.02075 
0.0229254 0.0133173 0.0205 0.0177455 0.0138357 0.0215284 0.0197379 0.0126265 0.0205 
0.0234996 0.0126639 0.0209983 0.0187921 0.0132304 0.0213414 0.0231368 0.0131494 0.0221453 
0.0235 0.0137112 0.0214013 0.0179438 0.0128939 0.0218004 0.0182029 0.0133916 0.0205 
0.0166641 0.0136222 0.022443 0.0217921 0.0109574 0.0222861 0.0234996 0.0141597 0.0205022 
0.0060136 0.0153388 0.0212499 0.000999688 0.0141997 0.0210678 0.00401697 0.0146185 0.0205 
0.00236141 0.0147384 0.0205 0.00752597 0.0148207 0.0205 0.000562246 0.0156642 0.0204999 
0.00154529 0.0154764 0.0205006 0.00755361 0.0165145 0.02075 0.000626221 0.0192617 0.0205 
0.00632044 0.0174089 0.02075 0.00125027 0.0175418 0.0212504 0.00724078 0.0170344 0.0218634 
0.0038873 0.0193765 0.0212499 0.00404705 0.0168819 0.0212495 0.00533797 0.0181952 0.020865 
0.00485913 0.0181321 0.0224099 0.00613403 0.0194815 0.0209999 0.00459852 0.0207846 0.0220148 
0.00412905 0.0150749 0.0218224 0.00531629 0.0191031 0.0222386 0.00918173 0.0184861 0.0214999 
0.00943448 0.0149848 0.0221183 0.0159986 0.0149567 0.0205 0.012763 0.0157846 0.02125 
0.0137476 0.0180913 0.0212499 0.0156374 0.01798 0.0221438 0.0116182 0.0198029 0.0205016 
0.00875279 0.0167642 0.0205 0.0105155 0.0203465 0.0207557 0.0109048 0.0178888 0.0205 
0.0110453 0.0189329 0.0206758 0.0117355 0.0183353 0.0212757 0.0113917 0.0172537 0.0222728 
0.0164042 0.0165607 0.0209999 0.0174993 0.0141323 0.0205 0.0181146 0.0150759 0.0204998 
0.0232451 0.0154213 0.0207512 0.0174375 0.0176983 0.0205 0.0214598 0.0142641 0.0215019 
0.0185108 0.016234 0.0207519 0.023472 0.0166321 0.0205 0.0232394 0.0178836 0.0209182 
0.0223455 0.0162783 0.0205 0.0184586 0.014256 0.0209569 0.0218482 0.0172104 0.0205 
0.018166 0.0169298 0.0218013 0.0225746 0.0190089 0.0205356 0.0194946 0.0141884 0.020882 
0.0234986 0.0196254 0.0205 0.0170952 0.0188131 0.0211151 0.0173539 0.0161603 0.0224439 
0.0171119 0.0149955 0.021346 0.0224614 0.0202771 0.02075 0.0177827 0.0191262 0.0221345 
0.0224167 0.0166997 0.0220022 0.0190673 0.0176466 0.0217649 0.0207218 0.0212606 0.0206998 
0.0234133 0.016949 0.0218703 0.0180491 0.0145244 0.022228 0.0194679 0.015418 0.0211652 
0.00100004 0.0214738 0.0209999 0.00277044 0.0228756 0.0205108 0.000596391 0.0229427 0.0205 
0.000972492 0.0243239 0.0207501 0.00170739 0.023072 0.0211743 0.0042445 0.023484 0.0212629 
0.00292886 0.021647 0.02075 0.00729613 0.0220609 0.0219994 0.00301758 0.0264975 0.0217545 
0.000532237 0.0225114 0.0221019 0.00263564 0.0214747 0.0219694 0.00575417 0.0272524 0.0205 
0.00710574 0.026904 0.0205 0.00214647 0.0244745 0.0212234 0.00930546 0.0217439 0.0205 
0.0131831 0.0267438 0.0205 0.0124622 0.0246305 0.0205 0.0135074 0.0251906 0.0205 
0.0152663 0.0225048 0.0209999 0.00895338 0.0255043 0.0205 0.0121916 0.0259034 0.0212488 
0.0128205 0.0238039 0.0222138 0.0101176 0.0226838 0.021396 0.0149428 0.0270996 0.0211997 
0.0105603 0.0238885 0.0217873 0.0156138 0.0259706 0.0209924 0.00921519 0.0250258 0.0224069 
0.0129729 0.0213171 0.0220462 0.0153849 0.0261675 0.0229537 0.0119491 0.022067 0.0219055 
0.0207327 0.0268031 0.0205 0.0197052 0.0266096 0.0205002 0.0224655 0.0223985 0.0214999 
0.0180595 0.0245613 0.0205 0.0234754 0.0278385 0.0205385 0.0190012 0.0274878 0.0211757 
0.0193081 0.0227697 0.0213081 0.0203295 0.0229844 0.0205857 0.0175917 0.023526 0.0211924 
0.0185176 0.0214706 0.0219066 0.0224582 0.0283748 0.0220447 0.0169776 0.0274301 0.020792 
0.0190525 0.0242661 0.0218419 0.0207932 0.0243792 0.0205403 0.0210391 0.0261812 0.0221735 
0.0184144 0.0239382 0.0233309 0.0172173 0.0249643 0.0231113 0.000544315 0.0313728 0.0205 
0.00249131 0.0347495 0.0220541 0.0014742 0.0318701 0.0205039 0.00305567 0.0289641 0.02075 
0.000754461 0.0328414 0.0208295 0.00460179 0.0335655 0.0207493 0.00578648 0.0325461 0.0205135 
0.00482951 0.0284249 0.0209999 0.000522898 0.035025 0.0205016 0.00347897 0.0325384 0.02075 
0.000500277 0.0340218 0.0205002 0.00650112 0.0318438 0.0205 0.00448317 0.0349644 0.0205 
0.00566047 0.0305225 0.0212843 0.00545121 0.033375 0.0220642 0.00719553 0.0339302 0.0212504 
0.00070005 0.0291709 0.0207692 0.00696506 0.0283433 0.0205278 0.0074133 0.0323295 0.0205 
0.00239245 0.0308482 0.0223104 0.00412738 0.0289194 0.0222883 0.0082981 0.0316675 0.0206666 
0.0154945 0.0301116 0.0205067 0.0112979 0.0322909 0.0205015 0.0100328 0.0318584 0.0205 
0.00877436 0.0293204 0.0217496 0.0134805 0.0293449 0.02075 0.00969334 0.0337543 0.0212499 
0.0148303 0.0321535 0.0214999 0.0127852 0.0306513 0.020513 0.0151985 0.028782 0.0220387 
0.0155385 0.0302441 0.0224634 0.0116035 0.0311388 0.0221104 0.0137249 0.0307933 0.0224733 
0.0155742 0.0351139 0.0208935 0.0213434 0.0306679 0.0212499 0.0234882 0.029797 0.0205 
0.0183952 0.0289573 0.02075 0.0171701 0.0320698 0.0205 0.0233001 0.0310748 0.0205 
[...]
POINT_DATA 1440
FIELD FieldData 7
id 1 1440 int
324 291 368 784 32 241 815 448 300 
442 816 710 527 256 870 100 153 486 
722 864 503 561 501 64 954 274 75 
121 228 392 490 199 395 474 282 590 
176 289 362 370 783 51 233 217 636 
549 126 307 676 209 730 764 311 192 
763 66 61 108 1195 581 89 155 178 
364 161 159 204 219 333 142 200 340 
452 518 185 31 123 273 113 544 577 
652 290 281 190 57 143 853 106 588 
360 380 154 427 13 390 879 137 44 
401 1166 1234 323 887 820 1067 1359 713 
881 911 943 673 1070 891 171 35 275 
46 80 556 287 714 865 756 318 686 
975 10 569 447 252 33 872 188 772 
709 1061 342 110 1028 1118 826 59 974 
571 189 319 6 293 735 308 49 146 
109 578 139 90 71 659 967 130 41 
231 279 693 725 697 330 78 741 800 
538 1236 812 944 794 592 542 910 272 
439 174 737 646 611 70 508 695 550 
1 529 786 269 19 1077 436 54 877 
888 1060 221 62 43 118 198 582 717 
1232 934 1310 1212 1338 838 260 450 345 
591 465 350 719 628 42 747 523 813 
787 492 956 238 947 1216 1230 566 837 
1333 1091 1398 1189 1193 1427 678 896 482 
12 700 600 1004 180 36 688 1293 952 
1081 1416 624 152 780 353 144 978 1233 
915 1264 1292 1294 1350 1394 1164 1221 1180 
512 862 1020 982 957 1113 1288 1105 1311 
1320 1044 1361 1048 1415 1087 1202 1424 162 
249 259 534 522 672 348 831 535 337 
897 980 844 991 638 925 483 904 1103 
338 1406 505 261 886 138 919 861 471 
984 1192 1249 1093 1041 1330 1419 557 1015 
698 609 304 1083 909 1120 916 1307 1153 
1142 1335 1348 1273 1414 60 451 433 386 
366 680 519 668 247 733 1108 615 554 
1186 316 1276 1177 570 309 626 640 91 
514 641 949 1018 1019 669 835 1134 802 
1033 1101 960 1278 1154 1043 1107 1167 1131 
973 901 1148 1400 268 1254 990 1133 1145 
1003 374 394 326 650 959 848 993 996 
878 892 856 1261 986 1140 1117 1181 1095 
584 579 242 814 423 347 543 855 3 
402 712 1242 1251 1100 987 40 682 1387 
762 883 328 969 405 453 335 533 1194 
1201 1240 367 1297 1306 1023 985 1062 485 
499 804 935 970 859 1097 1155 1271 1289 
1135 1319 1334 917 963 1299 1411 1426 740 
495 354 424 265 145 704 788 122 866 
525 487 705 230 637 194 551 1382 1421 
371 496 977 923 936 1151 792 1260 1089 
278 1054 711 1363 410 168 467 133 769 
976 653 8 776 702 415 431 573 73 
470 258 785 661 1102 1005 649 1146 1079 
690 829 1031 777 1200 1169 357 567 489 
773 510 331 781 94 1199 361 116 378 
899 24 421 446 244 379 381 267 665 
922 88 1156 907 1115 147 771 11 373 
81 493 760 1010 580 860 1127 1171 593 
1218 1237 1327 1322 1248 1255 1412 1428 306 
716 48 863 112 414 445 26 222 186 
455 129 45 313 477 595 707 851 778 
150 38 502 165 619 1076 574 105 218 
694 806 634 948 667 264 601 7 226 
86 532 96 953 894 1163 843 540 703 
140 926 187 736 103 325 1071 720 1185 
102 1283 1039 1304 817 1316 795 1125 564 
179 1160 1204 1126 271 344 696 84 964 
411 469 255 157 104 355 18 456 478 
225 39 117 645 14 541 589 250 131 
586 873 610 377 314 332 263 558 745 
76 243 299 629 167 351 210 149 69 
565 560 22 744 644 132 513 56 215 
53 363 284 869 229 468 651 559 20 
184 443 29 101 197 422 473 182 302 
288 87 125 79 195 435 173 277 206 
563 605 664 407 393 464 1013 630 679 
498 239 398 235 408 404 376 257 134 
418 358 52 141 163 9 329 93 481 
234 655 85 253 312 606 458 746 317 
158 385 842 587 596 388 466 151 28 
599 320 156 175 515 997 971 208 583 
929 548 472 839 836 1284 463 220 406 
633 731 823 369 98 979 824 1429 940 
868 625 494 684 774 942 598 148 25 
170 34 507 524 16 15 572 663 845 
97 895 613 1065 1116 5 604 723 759 
459 1038 322 2 1064 365 160 17 92 
202 136 211 724 47 115 372 334 77 
631 841 536 164 1072 989 585 801 1082 
419 1111 983 120 962 425 1104 798 237 
1314 1032 938 509 998 1001 286 850 1066 
488 212 1190 627 742 685 1257 675 399 
617 1407 858 941 958 1022 1197 1040 810 
893 890 1080 1086 1096 213 874 1225 1238 
968 1122 1231 1324 1339 734 1410 30 432 
172 648 1012 677 691 1138 789 758 726 
932 1256 1369 770 1312 1085 296 972 1029 
782 343 647 476 223 832 718 315 285 
521 479 1196 1053 196 576 430 1110 657 
715 833 662 1130 1056 1295 1364 1397 1035 
1078 1417 1315 1250 400 898 639 1021 1170 
594 1210 1229 1203 1253 1287 1296 1298 1326 
1374 1401 1137 1144 245 748 409 99 504 
928 1247 1174 1331 946 1373 775 1376 1388 
1423 1386 1198 597 1094 1128 1208 749 1267 
1285 1342 1343 1349 1379 1007 1263 1404 1371 
1121 1184 1243 1124 908 1106 1147 1176 1219 
937 1017 1269 1323 1370 1377 1392 1403 1409 
1413 506 412 1073 1168 752 1084 457 1275 
1141 1290 1291 1143 1281 1355 1025 1024 1139 
553 1353 1375 1209 623 1205 1016 1090 1149 
1213 1224 1258 1270 1047 1302 1305 1318 1362 
1356 1381 1000 621 765 1179 1191 1215 1245 
1301 1372 1136 809 912 924 1092 602 1265 
500 1340 1346 1367 1152 1399 1227 1329 1011 
1026 1069 900 966 876 889 981 1051 1165 
1268 1309 305 1222 1408 1420 1422 701 236 
545 462 608 607 920 1030 1098 658 875 
1351 1357 1378 1390 1396 1161 950 885 999 
1123 1336 1344 1385 1391 654 1162 927 1384 
384 961 811 847 1068 939 738 670 520 
880 1049 1088 1188 1235 1099 1286 1317 1347 
526 356 1430 674 620 1036 603 945 537 
799 822 1058 852 382 1244 1402 441 403 
903 921 797 821 632 454 1220 1241 1308 
913 1332 1366 1368 930 1055 124 687 562 
426 531 965 396 74 739 994 931 706 
341 346 327 671 689 728 753 808 846 
1009 1037 1282 834 1383 1214 933 375 807 
37 791 55 437 444 349 528 766 251 
840 1187 1207 1274 1300 95 547 397 754 
1059 727 1228 1175 1277 1158 428 729 955 
692 1075 1150 1246 1262 1132 1352 1354 1393 
1418 1057 1252 517 884 1157 67 1109 828 
992 902 803 352 303 721 227 768 491 
438 642 793 914 1045 1074 511 1280 767 
555 1279 988 660 750 193 681 1034 854 
475 614 270 849 1050 618 383 790 1313 
1358 1389 1425 1173 867 1183 796 699 827 
1046 1182 1206 1211 1223 1226 1259 1266 1272 
779 1303 1325 1328 1345 1360 1365 416 857 
575 301 1008 1112 413 882 181 191 461 
643 616 321 871 905 1129 266 1159 1178 
1217 1239 1395 201 708 1014 254 276 539 
568 295 951 1119 417 1027 216 906 183 
205 819 232 761 107 732 757 4 203 
50 283 119 635 114 1002 1063 1006 818 
1321 1341 1380 207 128 995 82 830 666 
683 434 127 497 359 72 387 546 262 
622 420 292 23 298 805 825 516 918 
1042 552 1172 1337 1114 83 656 1052 612 
391 755 68 297 484 530 480 214 440 
65 248 63 743 135 169 246 336 339 
224 280 429 449 111 58 177 294 310 
240 389 21 27 166 460 751 1405 1431 
1432 1433 1434 1435 1436 1437 1438 1439 1440 

type 1 1440 int
1 1 1 1 1 1 1 1 1 
1 1 1 1 1 1 1 1 1 
1 1 1 1 1 1 1 1 1 
1 1 1 1 1 1 1 1 1 
1 1 1 1 1 1 1 1 1 
1 1 1 1 1 1 1 1 1 
1 1 1 1 1 1 1 1 1 
1 1 1 1 1 1 1 1 1 
1 1 1 1 1 1 1 1 1 
1 1 1 1 1 1 1 1 1 
1 1 1 1 1 1 1 1 1 
1 1 1 1 1 1 1 1 1 
1 1 1 1 1 1 1 1 1 
1 1 1 1 1 1 1 1 1 
1 1 1 1 1 1 1 1 1 
1 1 1 1 1 1 1 1 1 
1 1 1 1 1 1 1 1 1 
1 1 1 1 1 1 1 1 1 
1 1 1 1 1 1 1 1 1 
1 1 1 1 1 1 1 1 1 
1 1 1 1 1 1 1 1 1 
1 1 1 1 1 1 1 1 1 
1 1 1 1 1 1 1 1 1 
1 1 1 1 1 1 1 1 1 
1 1 1 1 1 1 1 1 1 
1 1 1 1 1 1 1 1 1 
1 1 1 1 1 1 1 1 1 
1 1 1 1 1 1 1 1 1 
1 1 1 1 1 1 1 1 1 
1 1 1 1 1 1 1 1 1 
1 1 1 1 1 1 1 1 1 
1 1 1 1 1 1 1 1 1 
1 1 1 1 1 1 1 1 1 
1 1 1 1 1 1 1 1 1 
1 1 1 1 1 1 1 1 1 
1 1 1 1 1 1 1 1 1 
1 1 1 1 1 1 1 1 1 
1 1 1 1 1 1 1 1 1 
1 1 1 1 1 1 1 1 1 
1 1 1 1 1 1 1 1 1 
1 1 1 1 1 1 1 1 1 
1 1 1 1 1 1 1 1 1 
1 1 1 1 1 1 1 1 1 
1 1 1 1 1 1 1 1 1 
1 1 1 1 1 1 1 1 1 
1 1 1 1 1 1 1 1 1 
1 1 1 1 1 1 1 1 1 
1 1 1 1 1 1 1 1 1 
1 1 1 1 1 1 1 1 1 
1 1 1 1 1 1 1 1 1 
1 1 1 1 1 1 1 1 1 
1 1 1 1 1 1 1 1 1 
1 1 1 1 1 1 1 1 1 
1 1 1 1 1 1 1 1 1 
1 1 1 1 1 1 1 1 1 
1 1 1 1 1 1 1 1 1 
1 1 1 1 1 1 1 1 1 
1 1 1 1 1 1 1 1 1 
1 1 1 1 1 1 1 1 1 
1 1 1 1 1 1 1 1 1 
1 1 1 1 1 1 1 1 1 
1 1 1 1 1 1 1 1 1 
1 1 1 1 1 1 1 1 1 
1 1 1 1 1 1 1 1 1 
1 1 1 1 1 1 1 1 1 
1 1 1 1 1 1 1 1 1 
1 1 1 1 1 1 1 1 1 
1 1 1 1 1 1 1 1 1 
1 1 1 1 1 1 1 1 1 
1 1 1 1 1 1 1 1 1 
1 1 1 1 1 1 1 1 1 
1 1 1 1 1 1 1 1 1 
1 1 1 1 1 1 1 1 1 
1 1 1 1 1 1 1 1 1 
1 1 1 1 1 1 1 1 1 
1 1 1 1 1 1 1 1 1 
1 1 1 1 1 1 1 1 1 
1 1 1 1 1 1 1 1 1 
1 1 1 1 1 1 1 1 1 
1 1 1 1 1 1 1 1 1 
1 1 1 1 1 1 1 1 1 
1 1 1 1 1 1 1 1 1 
1 1 1 1 1 1 1 1 1 
1 1 1 1 1 1 1 1 1 
1 1 1 1 1 1 1 1 1 
1 1 1 1 1 1 1 1 1 
1 1 1 1 1 1 1 1 1 
1 1 1 1 1 1 1 1 1 
1 1 1 1 1 1 1 1 1 
1 1 1 1 1 1 1 1 1 
1 1 1 1 1 1 1 1 1 
1 1 1 1 1 1 1 1 1 
1 1 1 1 1 1 1 1 1 
1 1 1 1 1 1 1 1 1 
1 1 1 1 1 1 1 1 1 
1 1 1 1 1 1 1 1 1 
1 1 1 1 1 1 1 1 1 
1 1 1 1 1 1 1 1 1 
1 1 1 1 1 1 1 1 1 
1 1 1 1 1 1 1 1 1 
1 1 1 1 1 1 1 1 1 
1 1 1 1 1 1 1 1 1 
1 1 1 1 1 1 1 1 1 
1 1 1 1 1 1 1 1 1 
1 1 1 1 1 1 1 1 1 
1 1 1 1 1 1 1 1 1 
1 1 1 1 1 1 1 1 1 
1 1 1 1 1 1 1 1 1 
1 1 1 1 1 1 1 1 1 
1 1 1 1 1 1 1 1 1 
1 1 1 1 1 1 1 1 1 
1 1 1 1 1 1 1 1 1 
1 1 1 1 1 1 1 1 1 
1 1 1 1 1 1 1 1 1 
1 1 1 1 1 1 1 1 1 
1 1 1 1 1 1 1 1 1 
1 1 1 1 1 1 1 1 1 
1 1 1 1 1 1 1 1 1 
1 1 1 1 1 1 1 1 1 
1 1 1 1 1 1 1 1 1 
1 1 1 1 1 1 1 1 1 
1 1 1 1 1 1 1 1 1 
1 1 1 1 1 1 1 1 1 
1 1 1 1 1 1 1 1 1 
1 1 1 1 1 1 1 1 1 
1 1 1 1 1 1 1 1 1 
1 1 1 1 1 1 1 1 1 
1 1 1 1 1 1 1 1 1 
1 1 1 1 1 1 1 1 1 
1 1 1 1 1 1 1 1 1 
1 1 1 1 1 1 1 1 1 
1 1 1 1 1 1 1 1 1 
1 1 1 1 1 1 1 1 1 
1 1 1 1 1 1 1 1 1 
1 1 1 1 1 1 1 1 1 
1 1 1 1 1 1 1 1 1 
1 1 1 1 1 1 1 1 1 
1 1 1 1 1 1 1 1 1 
1 1 1 1 1 1 1 1 1 
1 1 1 1 1 1 1 1 1 
1 1 1 1 1 1 1 1 1 
1 1 1 1 1 1 1 1 1 
1 1 1 1 1 1 1 1 1 
1 1 1 1 1 1 1 1 1 
1 1 1 1 1 1 1 1 1 
1 1 1 1 1 1 1 1 1 
1 1 1 1 1 1 1 1 1 
1 1 1 1 1 1 1 1 1 
1 1 1 1 1 1 1 1 1 
1 1 1 1 1 1 1 1 1 
1 1 1 1 1 1 1 1 1 
1 1 1 1 1 1 1 1 1 
1 1 1 1 1 1 1 1 1 
1 1 1 1 1 1 1 1 1 
1 1 1 1 1 1 1 1 1 
1 1 1 1 1 1 1 1 1 
1 1 1 1 1 1 1 1 1 
1 1 1 1 1 1 1 1 1 
1 1 1 1 1 1 1 1 1 
1 1 1 1 1 1 1 1 1 

i 3 1440 int
0 0 0 0 0 0 0 0 0 
0 0 0 0 0 0 0 0 0 
0 0 0 0 0 0 0 0 0 
0 0 0 0 0 0 0 0 0 
0 0 0 0 0 0 0 0 0 
0 0 0 0 0 0 0 0 0 
0 0 0 0 0 0 0 0 0 
0 0 0 0 0 0 0 0 0 
0 0 0 0 0 0 0 0 0 
0 0 0 0 0 0 0 0 0 
0 0 0 0 0 0 0 0 0 
0 0 0 0 0 0 0 0 0 
0 0 0 0 0 0 0 0 0 
0 0 0 0 0 0 0 0 0 
0 0 0 0 0 0 0 0 0 
0 0 0 0 0 0 0 0 0 
0 0 0 0 0 0 0 0 0 
0 0 0 0 0 0 0 0 0 
0 0 0 0 0 0 0 0 0 
0 0 0 0 0 0 0 0 0 
0 0 0 0 0 0 0 0 0 
0 0 0 0 0 0 0 0 0 
0 0 0 0 0 0 0 0 0 
0 0 0 0 0 0 0 0 0 
0 0 0 0 0 0 0 0 0 
0 0 0 0 0 0 0 0 0 
0 0 0 0 0 0 0 0 0 
0 0 0 0 0 0 0 0 0 
0 0 0 0 0 0 0 0 0 
0 0 0 0 0 0 0 0 0 
0 0 0 0 0 0 0 0 0 
0 0 0 0 0 0 0 0 0 
0 0 0 0 0 0 0 0 0 
0 0 0 0 0 0 0 0 0 
0 0 0 0 0 0 0 0 0 
0 0 0 0 0 0 0 0 0 
0 0 0 0 0 0 0 0 0 
0 0 0 0 0 0 0 0 0 
0 0 0 0 0 0 0 0 0 
0 0 0 0 0 0 0 0 0 
0 0 0 0 0 0 0 0 0 
0 0 0 0 0 0 0 0 0 
0 0 0 0 0 0 0 0 0 
0 0 0 0 0 0 0 0 0 
0 0 0 0 0 0 0 0 0 
0 0 0 0 0 0 0 0 0 
0 0 0 0 0 0 0 0 0 
0 0 0 0 0 0 0 0 0 
0 0 0 0 0 0 0 0 0 
0 0 0 0 0 0 0 0 0 
0 0 0 0 0 0 0 0 0 
0 0 0 0 0 0 0 0 0 
0 0 0 0 0 0 0 0 0 
0 0 0 0 0 0 0 0 0 
0 0 0 0 0 0 0 0 0 
0 0 0 0 0 0 0 0 0 
0 0 0 0 0 0 0 0 0 
0 0 0 0 0 0 0 0 0 
0 0 0 0 0 0 0 0 0 
0 0 0 0 0 0 0 0 0 
0 0 0 0 0 0 0 0 0 
0 0 0 0 0 0 0 0 0 
0 0 0 0 0 0 0 0 0 
0 0 0 0 0 0 0 0 0 
0 0 0 0 0 0 0 0 0 
0 0 0 0 0 0 0 0 0 
0 0 0 0 0 0 0 0 0 
0 0 0 0 0 0 0 0 0 
0 0 0 0 0 0 0 0 0 
0 0 0 0 0 0 0 0 0 
0 0 0 0 0 0 0 0 0 
0 0 0 0 0 0 0 0 0 
0 0 0 0 0 0 0 0 0 
0 0 0 0 0 0 0 0 0 
0 0 0 0 0 0 0 0 0 
0 0 0 0 0 0 0 0 0 
0 0 0 0 0 0 0 0 0 
0 0 0 0 0 0 0 0 0 
0 0 0 0 0 0 0 0 0 
0 0 0 0 0 0 0 0 0 
0 0 0 0 0 0 0 0 0 
0 0 0 0 0 0 0 0 0 
0 0 0 0 0 0 0 0 0 
0 0 0 0 0 0 0 0 0 
0 0 0 0 0 0 0 0 0 
0 0 0 0 0 0 0 0 0 
0 0 0 0 0 0 0 0 0 
0 0 0 0 0 0 0 0 0 
0 0 0 0 0 0 0 0 0 
0 0 0 0 0 0 0 0 0 
0 0 0 0 0 0 0 0 0 
0 0 0 0 0 0 0 0 0 
0 0 0 0 0 0 0 0 0 
0 0 0 0 0 0 0 0 0 
0 0 0 0 0 0 0 0 0 
0 0 0 0 0 0 0 0 0 
0 0 0 0 0 0 0 0 0 
0 0 0 0 0 0 0 0 0 
0 0 0 0 0 0 0 0 0 
0 0 0 0 0 0 0 0 0 
0 0 0 0 0 0 0 0 0 
0 0 0 0 0 0 0 0 0 
0 0 0 0 0 0 0 0 0 
0 0 0 0 0 0 0 0 0 
0 0 0 0 0 0 0 0 0 
0 0 0 0 0 0 0 0 0 
0 0 0 0 0 0 0 0 0 
0 0 0 0 0 0 0 0 0 
0 0 0 0 0 0 0 0 0 
0 0 0 0 0 0 0 0 0 
0 0 0 0 0 0 0 0 0 
0 0 0 0 0 0 0 0 0 
0 0 0 0 0 0 0 0 0 
0 0 0 0 0 0 0 0 0 
0 0 0 0 0 0 0 0 0 
0 0 0 0 0 0 0 0 0 
0 0 0 0 0 0 0 0 0 
0 0 0 0 0 0 0 0 0 
0 0 0 0 0 0 0 0 0 
0 0 0 0 0 0 0 0 0 
0 0 0 0 0 0 0 0 0 
0 0 0 0 0 0 0 0 0 
0 0 0 0 0 0 0 0 0 
0 0 0 0 0 0 0 0 0 
0 0 0 0 0 0 0 0 0 
0 0 0 0 0 0 0 0 0 
0 0 0 0 0 0 0 0 0 
0 0 0 0 0 0 0 0 0 
0 0 0 0 0 0 0 0 0 
0 0 0 0 0 0 0 0 0 
0 0 0 0 0 0 0 0 0 
0 0 0 0 0 0 0 0 0 
0 0 0 0 0 0 0 0 0 
0 0 0 0 0 0 0 0 0 
0 0 0 0 0 0 0 0 0 
0 0 0 0 0 0 0 0 0 
0 0 0 0 0 0 0 0 0 
0 0 0 0 0 0 0 0 0 
0 0 0 0 0 0 0 0 0 
0 0 0 0 0 0 0 0 0 
0 0 0 0 0 0 0 0 0 
0 0 0 0 0 0 0 0 0 
0 0 0 0 0 0 0 0 0 
0 0 0 0 0 0 0 0 0 
0 0 0 0 0 0 0 0 0 
0 0 0 0 0 0 0 0 0 
0 0 0 0 0 0 0 0 0 
0 0 0 0 0 0 0 0 0 
0 0 0 0 0 0 0 0 0 
0 0 0 0 0 0 0 0 0 
0 0 0 0 0 0 0 0 0 
0 0 0 0 0 0 0 0 0 
0 0 0 0 0 0 0 0 0 
0 0 0 0 0 0 0 0 0 
0 0 0 0 0 0 0 0 0 
0 0 0 0 0 0 0 0 0 
0 0 0 0 0 0 0 0 0 
0 0 0 0 0 0 0 0 0 
0 0 0 0 0 0 0 0 0 
0 0 0 0 0 0 0 0 0 
0 0 0 0 0 0 0 0 0 
0 0 0 0 0 0 0 0 0 
0 0 0 0 0 0 0 0 0 
0 0 0 0 0 0 0 0 0 
0 0 0 0 0 0 0 0 0 
0 0 0 0 0 0 0 0 0 
0 0 0 0 0 0 0 0 0 
0 0 0 0 0 0 0 0 0 
0 0 0 0 0 0 0 0 0 
0 0 0 0 0 0 0 0 0 
0 0 0 0 0 0 0 0 0 
0 0 0 0 0 0 0 0 0 
0 0 0 0 0 0 0 0 0 
0 0 0 0 0 0 0 0 0 
0 0 0 0 0 0 0 0 0 
0 0 0 0 0 0 0 0 0 
0 0 0 0 0 0 0 0 0 
0 0 0 0 0 0 0 0 0 
0 0 0 0 0 0 0 0 0 
0 0 0 0 0 0 0 0 0 
0 0 0 0 0 0 0 0 0 
0 0 0 0 0 0 0 0 0 
0 0 0 0 0 0 0 0 0 
0 0 0 0 0 0 0 0 0 
0 0 0 0 0 0 0 0 0 
0 0 0 0 0 0 0 0 0 
0 0 0 0 0 0 0 0 0 
0 0 0 0 0 0 0 0 0 
0 0 0 0 0 0 0 0 0 
0 0 0 0 0 0 0 0 0 
0 0 0 0 0 0 0 0 0 
0 0 0 0 0 0 0 0 0 
0 0 0 0 0 0 0 0 0 
0 0 0 0 0 0 0 0 0 
0 0 0 0 0 0 0 0 0 
0 0 0 0 0 0 0 0 0 
0 0 0 0 0 0 0 0 0 
0 0 0 0 0 0 0 0 0 
0 0 0 0 0 0 0 0 0 
0 0 0 0 0 0 0 0 0 
0 0 0 0 0 0 0 0 0 
0 0 0 0 0 0 0 0 0 
0 0 0 0 0 0 0 0 0 
0 0 0 0 0 0 0 0 0 
0 0 0 0 0 0 0 0 0 
0 0 0 0 0 0 0 0 0 
0 0 0 0 0 0 0 0 0 
0 0 0 0 0 0 0 0 0 
0 0 0 0 0 0 0 0 0 
0 0 0 0 0 0 0 0 0 
0 0 0 0 0 0 0 0 0 
0 0 0 0 0 0 0 0 0 
0 0 0 0 0 0 0 0 0 
0 0 0 0 0 0 0 0 0 
0 0 0 0 0 0 0 0 0 
0 0 0 0 0 0 0 0 0 
0 0 0 0 0 0 0 0 0 
0 0 0 0 0 0 0 0 0 
0 0 0 0 0 0 0 0 0 
0 0 0 0 0 0 0 0 0 
0 0 0 0 0 0 0 0 0 
0 0 0 0 0 0 0 0 0 
0 0 0 0 0 0 0 0 0 
0 0 0 0 0 0 0 0 0 
0 0 0 0 0 0 0 0 0 
0 0 0 0 0 0 0 0 0 
0 0 0 0 0 0 0 0 0 
0 0 0 0 0 0 0 0 0 
0 0 0 0 0 0 0 0 0 
0 0 0 0 0 0 0 0 0 
0 0 0 0 0 0 0 0 0 
0 0 0 0 0 0 0 0 0 
0 0 0 0 0 0 0 0 0 
0 0 0 0 0 0 0 0 0 
0 0 0 0 0 0 0 0 0 
0 0 0 0 0 0 0 0 0 
0 0 0 0 0 0 0 0 0 
0 0 0 0 0 0 0 0 0 
0 0 0 0 0 0 0 0 0 
0 0 0 0 0 0 0 0 0 
0 0 0 0 0 0 0 0 0 
0 0 0 0 0 0 0 0 0 
0 0 0 0 0 0 0 0 0 
0 0 0 0 0 0 0 0 0 
0 0 0 0 0 0 0 0 0 
0 0 0 0 0 0 0 0 0 
0 0 0 0 0 0 0 0 0 
0 0 0 0 0 0 0 0 0 
0 0 0 0 0 0 0 0 0 
0 0 0 0 0 0 0 0 0 
0 0 0 0 0 0 0 0 0 
0 0 0 0 0 0 0 0 0 
0 0 0 0 0 0 0 0 0 
0 0 0 0 0 0 0 0 0 
0 0 0 0 0 0 0 0 0 
0 0 0 0 0 0 0 0 0 
0 0 0 0 0 0 0 0 0 
0 0 0 0 0 0 0 0 0 
0 0 0 0 0 0 0 0 0 
0 0 0 0 0 0 0 0 0 
0 0 0 0 0 0 0 0 0 
0 0 0 0 0 0 0 0 0 
0 0 0 0 0 0 0 0 0 
0 0 0 0 0 0 0 0 0 
0 0 0 0 0 0 0 0 0 
0 0 0 0 0 0 0 0 0 
0 0 0 0 0 0 0 0 0 
0 0 0 0 0 0 0 0 0 
0 0 0 0 0 0 0 0 0 
0 0 0 0 0 0 0 0 0 
0 0 0 0 0 0 0 0 0 
0 0 0 0 0 0 0 0 0 
0 0 0 0 0 0 0 0 0 
0 0 0 0 0 0 0 0 0 
0 0 0 0 0 0 0 0 0 
0 0 0 0 0 0 0 0 0 
0 0 0 0 0 0 0 0 0 
0 0 0 0 0 0 0 0 0 
0 0 0 0 0 0 0 0 0 
0 0 0 0 0 0 0 0 0 
0 0 0 0 0 0 0 0 0 
0 0 0 0 0 0 0 0 0 
0 0 0 0 0 0 0 0 0 
0 0 0 0 0 0 0 0 0 
0 0 0 0 0 0 0 0 0 
0 0 0 0 0 0 0 0 0 
0 0 0 0 0 0 0 0 0 
0 0 0 0 0 0 0 0 0 
0 0 0 0 0 0 0 0 0 
0 0 0 0 0 0 0 0 0 
0 0 0 0 0 0 0 0 0 
0 0 0 0 0 0 0 0 0 
0 0 0 0 0 0 0 0 0 
0 0 0 0 0 0 0 0 0 
0 0 0 0 0 0 0 0 0 
0 0 0 0 0 0 0 0 0 
0 0 0 0 0 0 0 0 0 
0 0 0 0 0 0 0 0 0 
0 0 0 0 0 0 0 0 0 
0 0 0 0 0 0 0 0 0 
0 0 0 0 0 0 0 0 0 
0 0 0 0 0 0 0 0 0 
0 0 0 0 0 0 0 0 0 
0 0 0 0 0 0 0 0 0 
0 0 0 0 0 0 0 0 0 
0 0 0 0 0 0 0 0 0 
0 0 0 0 0 0 0 0 0 
0 0 0 0 0 0 0 0 0 
0 0 0 0 0 0 0 0 0 
0 0 0 0 0 0 0 0 0 
0 0 0 0 0 0 0 0 0 
0 0 0 0 0 0 0 0 0 
0 0 0 0 0 0 0 0 0 
0 0 0 0 0 0 0 0 0 
0 0 0 0 0 0 0 0 0 
0 0 0 0 0 0 0 0 0 
0 0 0 0 0 0 0 0 0 
0 0 0 0 0 0 0 0 0 
0 0 0 0 0 0 0 0 0 
0 0 0 0 0 0 0 0 0 
0 0 0 0 0 0 0 0 0 
0 0 0 0 0 0 0 0 0 
0 0 0 0 0 0 0 0 0 
0 0 0 0 0 0 0 0 0 
0 0 0 0 0 0 0 0 0 
0 0 0 0 0 0 0 0 0 
0 0 0 0 0 0 0 0 0 
0 0 0 0 0 0 0 0 0 
0 0 0 0 0 0 0 0 0 
0 0 0 0 0 0 0 0 0 
0 0 0 0 0 0 0 0 0 
0 0 0 0 0 0 0 0 0 
0 0 0 0 0 0 0 0 0 
0 0 0 0 0 0 0 0 0 
0 0 0 0 0 0 0 0 0 
0 0 0 0 0 0 0 0 0 
0 0 0 0 0 0 0 0 0 
0 0 0 0 0 0 0 0 0 
0 0 0 0 0 0 0 0 0 
0 0 0 0 0 0 0 0 0 
0 0 0 0 0 0 0 0 0 
0 0 0 0 0 0 0 0 0 
0 0 0 0 0 0 0 0 0 
0 0 0 0 0 0 0 0 0 
0 0 0 0 0 0 0 0 0 
0 0 0 0 0 0 0 0 0 
0 0 0 0 0 0 0 0 0 
0 0 0 0 0 0 0 0 0 
0 0 0 0 0 0 0 0 0 
0 0 0 0 0 0 0 0 0 
0 0 0 0 0 0 0 0 0 
0 0 0 0 0 0 0 0 0 
0 0 0 0 0 0 0 0 0 
0 0 0 0 0 0 0 0 0 
0 0 0 0 0 0 0 0 0 
0 0 0 0 0 0 0 0 0 
0 0 0 0 0 0 0 0 0 
0 0 0 0 0 0 0 0 0 
0 0 0 0 0 0 0 0 0 
0 0 0 0 0 0 0 0 0 
0 0 0 0 0 0 0 0 0 
0 0 0 0 0 0 0 0 0 
0 0 0 0 0 0 0 0 0 
0 0 0 0 0 0 0 0 0 
0 0 0 0 0 0 0 0 0 
0 0 0 0 0 0 0 0 0 
0 0 0 0 0 0 0 0 0 
0 0 0 0 0 0 0 0 0 
0 0 0 0 0 0 0 0 0 
0 0 0 0 0 0 0 0 0 
0 0 0 0 0 0 0 0 0 
0 0 0 0 0 0 0 0 0 
0 0 0 0 0 0 0 0 0 
0 0 0 0 0 0 0 0 0 
0 0 0 0 0 0 0 0 0 
0 0 0 0 0 0 0 0 0 
0 0 0 0 0 0 0 0 0 
0 0 0 0 0 0 0 0 0 
0 0 0 0 0 0 0 0 0 
0 0 0 0 0 0 0 0 0 
0 0 0 0 0 0 0 0 0 
0 0 0 0 0 0 0 0 0 
0 0 0 0 0 0 0 0 0 
0 0 0 0 0 0 0 0 0 
0 0 0 0 0 0 0 0 0 
0 0 0 0 0 0 0 0 0 
0 0 0 0 0 0 0 0 0 
0 0 0 0 0 0 0 0 0 
0 0 0 0 0 0 0 0 0 
0 0 0 0 0 0 0 0 0 
0 0 0 0 0 0 0 0 0 
0 0 0 0 0 0 0 0 0 
0 0 0 0 0 0 0 0 0 
0 0 0 0 0 0 0 0 0 
0 0 0 0 0 0 0 0 0 
0 0 0 0 0 0 0 0 0 
0 0 0 0 0 0 0 0 0 
0 0 0 0 0 0 0 0 0 
0 0 0 0 0 0 0 0 0 
0 0 0 0 0 0 0 0 0 
0 0 0 0 0 0 0 0 0 
0 0 0 0 0 0 0 0 0 
0 0 0 0 0 0 0 0 0 
0 0 0 0 0 0 0 0 0 
0 0 0 0 0 0 0 0 0 
0 0 0 0 0 0 0 0 0 
0 0 0 0 0 0 0 0 0 
0 0 0 0 0 0 0 0 0 
0 0 0 0 0 0 0 0 0 
0 0 0 0 0 0 0 0 0 
0 0 0 0 0 0 0 0 0 
0 0 0 0 0 0 0 0 0 
0 0 0 0 0 0 0 0 0 
0 0 0 0 0 0 0 0 0 
0 0 0 0 0 0 0 0 0 
0 0 0 0 0 0 0 0 0 
0 0 0 0 0 0 0 0 0 
0 0 0 0 0 0 0 0 0 
0 0 0 0 0 0 0 0 0 
0 0 0 0 0 0 0 0 0 
0 0 0 0 0 0 0 0 0 
0 0 0 0 0 0 0 0 0 
0 0 0 0 0 0 0 0 0 
0 0 0 0 0 0 0 0 0 
0 0 0 0 0 0 0 0 0 
0 0 0 0 0 0 0 0 0 
0 0 0 0 0 0 0 0 0 
0 0 0 0 0 0 0 0 0 
0 0 0 0 0 0 0 0 0 
0 0 0 0 0 0 0 0 0 
0 0 0 0 0 0 0 0 0 
0 0 0 0 0 0 0 0 0 
0 0 0 0 0 0 0 0 0 
0 0 0 0 0 0 0 0 0 
0 0 0 0 0 0 0 0 0 
0 0 0 0 0 0 0 0 0 
0 0 0 0 0 0 0 0 0 
0 0 0 0 0 0 0 0 0 
0 0 0 0 0 0 0 0 0 
0 0 0 0 0 0 0 0 0 
0 0 0 0 0 0 0 0 0 
0 0 0 0 0 0 0 0 0 
0 0 0 0 0 0 0 0 0 
0 0 0 0 0 0 0 0 0 
0 0 0 0 0 0 0 0 0 
0 0 0 0 0 0 0 0 0 
0 0 0 0 0 0 0 0 0 
0 0 0 0 0 0 0 0 0 
0 0 0 0 0 0 0 0 0 
0 0 0 0 0 0 0 0 0 
0 0 0 0 0 0 0 0 0 
0 0 0 0 0 0 0 0 0 
0 0 0 0 0 0 0 0 0 
0 0 0 0 0 0 0 0 0 
0 0 0 0 0 0 0 0 0 
0 0 0 0 0 0 0 0 0 
0 0 0 0 0 0 0 0 0 
0 0 0 0 0 0 0 0 0 
0 0 0 0 0 0 0 0 0 
0 0 0 0 0 0 0 0 0 
0 0 0 0 0 0 0 0 0 
0 0 0 0 0 0 0 0 0 
0 0 0 0 0 0 0 0 0 
0 0 0 0 0 0 0 0 0 
0 0 0 0 0 0 0 0 0 
0 0 0 0 0 0 0 0 0 
0 0 0 0 0 0 0 0 0 
0 0 0 0 0 0 0 0 0 
0 0 0 0 0 0 0 0 0 
0 0 0 0 0 0 0 0 0 
0 0 0 0 0 0 0 0 0 
0 0 0 0 0 0 0 0 0 
0 0 0 0 0 0 0 0 0 
0 0 0 0 0 0 0 0 0 
0 0 0 0 0 0 0 0 0 
0 0 0 0 0 0 0 0 0 
0 0 0 0 0 0 0 0 0 
0 0 0 0 0 0 0 0 0 
0 0 0 0 0 0 0 0 0 
0 0 0 0 0 0 0 0 0 

v 3 1440 double
0.905977 -0.070748 -0.0140289 -0.262973 -0.0761289 0.00386605 0.0335973 0.10695 2.78755e-11 
-0.630067 0.78077 0.214649 -0.686169 -0.223512 0.187495 -0.651709 0.776601 0.0377454 
0.149099 0.188263 3.06254e-11 0.564986 -0.272327 9.08895e-09 0.0234062 -0.0215273 -0.862217 
0.0165074 0.235611 -0.00682306 0.120455 1.40129 0.00102713 0.0173506 -0.0119799 -2.89546e-11 
0.000395025 0.226659 4.27169e-05 0.05702 0.254853 -0.135002 1.24976 -1.20422 -0.269287 
-0.0273062 0.40763 -0.4302 -1.29838 0.71711 0.385616 0.648971 0.224308 0.058812 
0.73479 -1.36689 1.68761e-11 -1.18619 -2.1174 0.956488 0.0449754 -1.41979 0.513211 
-0.920251 0.293754 0.0863404 -1.22439 0.0165224 -0.222013 0.685925 -0.27609 -0.694058 
-1.4756 0.0534227 0.0265814 0.606508 -0.597115 -2.43252e-09 -0.0133172 -1.29339 -9.95251e-12 
-0.0996457 0.464529 0.0478597 0.19575 0.275195 -0.0250701 0.264428 -0.431202 1.15845 
0.610627 1.3186 -0.0302187 0.00628489 0.451341 -0.0321165 -0.0409914 0.401085 -1.29989e-05 
-0.518329 -0.389668 1.65704e-11 0.696783 -0.238454 -0.0020001 -0.616391 0.0174662 -0.000753246 
-0.433785 0.0579637 0.0253769 -0.625135 0.348112 -0.159124 -0.653472 0.0826625 0.00387977 
-1.19544 0.203683 0.00614021 0.677176 1.4464 -0.0719806 -0.645134 0.75277 1.50429e-11 
0.712038 0.146549 0.0270152 -0.398609 0.603866 0.13802 0.453387 -0.489734 -0.00877225 
-0.334532 0.904148 0.105443 -0.0145308 0.241136 -0.227854 -0.101064 -1.07602 0.052984 