# vtk DataFile Version 4.0
Generated by LIGGGHTS
ASCII
DATASET POLYDATA
POINTS 2830 float
0.00353236 0.0017777 0.0217901 0.000509745 0.00160938 0.0205 0.00571282 0.00354885 0.02075 
0.00548134 0.000619528 0.0205 0.00489273 0.00248494 0.0205 0.0019555 0.0008407 0.0205 
0.00443768 0.00354344 0.0205 0.00049999 0.000504957 0.0205 0.00135984 0.00282757 0.0209999 
0.00613992 0.00490025 0.0205 0.00448206 0.000580402 0.0205 0.000874878 0.00572141 0.0211138 
0.000940921 0.00707803 0.0205 0.00539881 0.00251804 0.0214388 0.0055818 0.00175616 0.0205 
0.00252468 0.00571676 0.0205 0.0055232 0.00130069 0.0215251 0.0005038 0.00397687 0.021443 
0.00669805 0.00226011 0.0207501 0.00657616 0.00074086 0.0215232 0.0069404 0.00669498 0.021 
0.00649349 0.000513397 0.0205 0.00554554 0.00692894 0.0205 0.000662736 0.00283832 0.0223281 
0.0076658 0.000883128 0.02075 0.0010468 0.00092374 0.0215431 0.00761671 0.000750299 0.0222441 
0.00791906 0.00216243 0.0205 0.00338737 0.00341234 0.0206428 0.001518 0.00691738 0.0218208 
0.00826141 0.00619165 0.0204998 0.00827947 0.00419208 0.0219999 0.00883018 0.00172968 0.0214772 
0.00925623 0.006291 0.0205 0.00983928 0.00547867 0.0205 0.0102444 0.00456453 0.0205 
0.0118133 0.00341829 0.0204999 0.0108224 0.0027566 0.0205 0.0140695 0.00195871 0.0207496 
0.0106344 0.00137541 0.0204998 0.00983354 0.000515665 0.0205 0.0137168 0.000500667 0.0205 
0.0111181 0.000500034 0.0205 0.0088336 0.000503633 0.0205 0.0111688 0.00418364 0.0204995 
0.0134654 0.00323497 0.0205 0.00973022 0.00220122 0.0207498 0.0110284 0.00519642 0.0205 
0.0106215 0.00490927 0.0213722 0.0127585 0.00486966 0.0214999 0.0105106 0.000749951 0.0215747 
0.0139469 0.0061295 0.0204998 0.00872647 0.00149845 0.0205 0.0107701 0.00675636 0.0212506 
0.0145248 0.00670716 0.0217575 0.0101745 0.00353498 0.0205001 0.0145317 0.00500683 0.0205 
0.0149259 0.00592587 0.0204999 0.0151627 0.00355685 0.0212499 0.00867296 0.000516189 0.0214871 
0.0121353 0.00187072 0.0212506 0.0149673 0.0007508 0.02075 0.0109115 0.00349456 0.0215095 
0.0115919 0.000500139 0.0221941 0.0129014 0.000499694 0.0220219 0.0131243 0.00705748 0.02075 
0.0125427 0.00701585 0.02214 0.02325 0.000749988 0.0207499 0.0227674 0.00337589 0.0205 
0.0235 0.00516655 0.0205 0.0214705 0.000999932 0.0209998 0.02325 0.00422365 0.0212816 
0.02325 0.00225017 0.0207499 0.0203353 0.00257733 0.02075 0.0215931 0.00441389 0.0207499 
0.0235 0.00617422 0.0204999 0.0197226 0.000756811 0.02075 0.0164872 0.0056771 0.0212499 
0.016971 0.00149976 0.0214998 0.0228606 0.000999937 0.0224376 0.0218462 0.00288697 0.0215782 
0.016805 0.00330012 0.0205 0.0187683 0.00424093 0.0209997 0.0232499 0.00570221 0.02163 
0.0182182 0.00554872 0.0214889 0.0188366 0.0025102 0.02075 0.0204068 0.00387866 0.0214956 
0.0203272 0.0061301 0.0214999 0.0225766 0.0056275 0.0205 0.0180741 0.00551335 0.0205 
0.0221022 0.00521115 0.0215669 0.0181831 0.00677823 0.0217118 0.0185645 0.00638742 0.0205 
0.00253458 0.00718156 0.0207499 0.00722169 0.00758315 0.0221938 0.00791251 0.00772646 0.0205 
0.00375222 0.00781547 0.0205 0.00465781 0.00738968 0.0205 0.00621062 0.0120153 0.0205 
0.00507471 0.00854777 0.02075 0.000500449 0.00797603 0.0205 0.00606036 0.00781992 0.0205 
0.000739205 0.00894728 0.0205 0.00527336 0.0100982 0.02075 0.00606574 0.00800396 0.0217901 
0.00590405 0.00922913 0.0213906 0.00286523 0.00960862 0.0219998 0.000601108 0.00993858 0.0205 
0.0078815 0.0126014 0.0205 0.00254249 0.0118086 0.0205 0.000499972 0.0109334 0.0205 
0.00380135 0.0116279 0.0205 0.0050345 0.0115825 0.02075 0.00107335 0.0122261 0.0210001 
0.00634883 0.0091358 0.0204999 0.00564512 0.0129239 0.0205 0.0014817 0.013869 0.0205 
0.000499911 0.0135185 0.0204998 0.00749074 0.0114347 0.02075 0.00699114 0.0139348 0.0212498 
0.00700577 0.00815424 0.0205 0.00494391 0.00828674 0.0224478 0.00531995 0.00917975 0.0222007 
0.000507204 0.013306 0.0219126 0.00506336 0.0110933 0.0219 0.00364076 0.0137797 0.0222498 
0.00785457 0.0094362 0.0217814 0.000499979 0.0141053 0.0213092 0.00646626 0.0106963 0.0205 
0.00538544 0.0101774 0.0221806 0.00837095 0.00720421 0.02187 0.0120643 0.00767051 0.0204997 
0.00858643 0.0141876 0.0205 0.014508 0.00831359 0.02075 0.00913767 0.00784306 0.0207502 
0.0137502 0.00963902 0.02075 0.0107513 0.0108397 0.0204999 0.0132385 0.0126177 0.0205 
0.0116468 0.00935098 0.0214999 0.0135062 0.00812863 0.0218509 0.00956377 0.0089918 0.0205 
0.0154863 0.00905041 0.0205 0.0124943 0.0108637 0.0205 0.00865238 0.0110315 0.0205 
0.0149108 0.013087 0.0214998 0.0125209 0.0119212 0.0205 0.00970065 0.0102089 0.0207517 
0.0116103 0.011355 0.0205 0.00972195 0.0101576 0.0220005 0.011884 0.0126922 0.0205 
0.0114206 0.013938 0.0205 0.012617 0.0136734 0.02075 0.0125196 0.0114269 0.0216499 
0.00988323 0.0126561 0.0219997 0.0102785 0.0082885 0.0205 0.0136985 0.0112027 0.0207499 
0.0146663 0.00926155 0.0216479 0.0152784 0.010469 0.0210026 0.00976696 0.00826731 0.0220952 
0.013924 0.0112023 0.0222328 0.0159749 0.0117124 0.0205 0.0157456 0.00746602 0.02075 
0.0157657 0.011379 0.0220982 0.0164495 0.00848945 0.0205975 0.0225291 0.00720281 0.0209997 
0.0172728 0.00748208 0.0207498 0.0163622 0.00953298 0.0205 0.0169496 0.0125014 0.0207499 
0.0210472 0.00770539 0.0205 0.0187358 0.0110669 0.0217503 0.020753 0.0100766 0.0216357 
0.0201493 0.0088276 0.0209999 0.0170351 0.010276 0.0205 0.019428 0.00761124 0.0205 
0.0230003 0.00914623 0.021 0.0185525 0.00814512 0.0212155 0.0215746 0.00881544 0.0205 
0.0175179 0.00912632 0.02075 0.0168697 0.0112633 0.0205 0.021416 0.0118127 0.0205 
0.0216264 0.0102005 0.02075 0.0235002 0.0104689 0.0204999 0.0235 0.00799618 0.0218231 
0.021319 0.0079849 0.0214208 0.0226219 0.0113221 0.0207499 0.0204022 0.0102186 0.0204996 
0.0223442 0.012796 0.0207499 0.0227653 0.0139499 0.0205 0.0205992 0.0112319 0.0205 
0.0234991 0.0121775 0.0205026 0.0176897 0.0130591 0.0217918 0.0216357 0.0120398 0.021449 
0.0234971 0.0136188 0.0214081 0.0167203 0.0123786 0.0219846 0.0180052 0.013122 0.0204999 
0.0215531 0.00918124 0.0219831 0.0186735 0.0138708 0.0205063 0.0189844 0.0129204 0.0204997 
0.0204759 0.0138004 0.0214998 0.0224607 0.0140466 0.0214475 0.0165213 0.0114883 0.0214116 
0.0227679 0.0105455 0.0220249 0.0235001 0.0132002 0.0204999 0.0235001 0.0115955 0.0215963 
0.0211296 0.0111809 0.0213462 0.018547 0.0132811 0.0213273 0.0220062 0.00799973 0.022158 
0.0187263 0.0132454 0.0223237 0.000499903 0.0147533 0.0220706 0.000501869 0.0146942 0.0205 
0.00327912 0.0159012 0.0205 0.00342949 0.0170422 0.0205 0.00764735 0.0157566 0.0207499 
0.00124999 0.0161322 0.0212499 0.00736985 0.017673 0.0212498 0.0050128 0.0168403 0.0212499 
0.00650908 0.0163064 0.0205 0.00779551 0.0153544 0.0219515 0.00625601 0.01936 0.0207742 
0.000502256 0.0192226 0.0205 0.00747069 0.0192513 0.0205 0.00562089 0.0183166 0.0205 
0.00663356 0.0158309 0.0218555 0.00376006 0.0195208 0.0217499 0.00577733 0.0207826 0.02075 
0.00104609 0.0206347 0.0209999 0.00306566 0.0168283 0.021718 0.00794121 0.0207611 0.0212498 
0.000837953 0.0180247 0.02075 0.00614777 0.0189321 0.0222095 0.000499995 0.018964 0.0215023 
0.00225207 0.0177092 0.0209311 0.00243968 0.0210496 0.0205 0.00631329 0.016912 0.022419 
0.0136482 0.0143343 0.0205 0.0133227 0.0143559 0.0215237 0.00823381 0.0162308 0.0217467 
0.0155637 0.0146936 0.0205 0.00883825 0.0194192 0.0205 0.00864016 0.0188753 0.0213154 
0.00826349 0.0145381 0.0222905 0.00969715 0.0211449 0.0224457 0.00892389 0.018179 0.0205 
0.00965285 0.0210908 0.0214259 0.00890068 0.0151193 0.021272 0.00941665 0.016772 0.0209999 
0.00978294 0.0151514 0.0221569 0.0110434 0.0190862 0.0219998 0.011601 0.0156641 0.0214999 
0.0143386 0.0157658 0.0212643 0.0129811 0.0185902 0.0205 0.00984425 0.0148434 0.0205 
0.0140997 0.0191072 0.020762 0.0140071 0.0178219 0.0205001 0.0149495 0.0182279 0.0205 
0.01303 0.016644 0.0205 0.0120263 0.0173437 0.0205 0.0129796 0.0195966 0.0205004 
0.00948996 0.020361 0.0205 0.0137317 0.0203036 0.0214757 0.0116157 0.0210025 0.0205 
0.0128311 0.0208124 0.0207499 0.0159538 0.0150975 0.0213386 0.0149538 0.020146 0.0205 
0.0130538 0.0176183 0.020724 0.0144906 0.0177221 0.0216486 0.0139567 0.0203221 0.0205 
0.0149226 0.0172282 0.0205 0.0157464 0.0166214 0.0206156 0.0152036 0.0188105 0.021272 
0.0155671 0.0196638 0.021646 0.0147331 0.0203528 0.0214531 0.0137748 0.0188942 0.0222509 
0.013587 0.0170455 0.0221987 0.0157531 0.019545 0.0205 0.0129795 0.0210219 0.0223505 
0.0156067 0.0171383 0.0214846 0.0158394 0.017633 0.0205 0.00891618 0.0177747 0.0220623 
0.0127986 0.0172612 0.0216225 0.0142981 0.0212622 0.0205011 0.0159076 0.0156408 0.0204998 
0.0148004 0.0196121 0.0223111 0.0154281 0.0204059 0.0223019 0.0149537 0.0212083 0.0219369 
0.0160945 0.0186051 0.0205 0.0171324 0.0142343 0.0209999 0.0185724 0.0144134 0.0213794 
0.0187354 0.0148687 0.0204998 0.0176777 0.0154416 0.0217044 0.017985 0.0155298 0.0205 
0.0175961 0.0172898 0.0205 0.0221729 0.0151133 0.02075 0.0187885 0.0165049 0.0205 
0.0189291 0.0156719 0.0214376 0.0235003 0.0164781 0.0204998 0.022306 0.0167484 0.0207497 
0.0210008 0.0155457 0.0205 0.020059 0.0164596 0.0205 0.0185559 0.0175717 0.0205 
0.0195187 0.0173009 0.0205 0.0235001 0.017478 0.0204999 0.0197033 0.0169333 0.0216803 
0.0169803 0.0162313 0.0207501 0.0206831 0.0177042 0.02075 0.0210786 0.0165435 0.0205 
0.0196109 0.0182965 0.0204999 0.0210948 0.0199341 0.0205 0.0235 0.0144881 0.0209129 
0.0197013 0.0153661 0.0205 0.0187892 0.0178207 0.0214403 0.0198701 0.0194932 0.0207499 
0.0185083 0.018858 0.02075 0.0234999 0.0153988 0.0205 0.0224613 0.0188639 0.0214997 
0.0213805 0.016113 0.0220918 0.0201671 0.0158191 0.0212601 0.0232469 0.0159397 0.0215989 
0.0174942 0.0179818 0.0212376 0.0234989 0.0205059 0.0205 0.0190119 0.0207233 0.02075 
0.0200238 0.0206083 0.0214756 0.0234927 0.0206141 0.0214941 0.0234995 0.0171543 0.0214461 
0.0194853 0.0185392 0.0214629 0.0179638 0.0167883 0.0213076 0.0207895 0.019962 0.0214546 
0.0209535 0.020902 0.0217525 0.0188429 0.019771 0.0215496 0.0172844 0.0188005 0.0205 
0.0171013 0.0204068 0.0212499 0.0168049 0.0179013 0.0205 0.0186696 0.0206541 0.0219862 
[...]
POINT_DATA 2830
FIELD FieldData 7
id 1 2830 int
291 368 784 32 241 815 448 300 442 
816 710 527 256 100 153 722 864 503 
561 501 64 954 380 587 370 28 220 
307 2736 998 870 324 1195 121 228 490 
199 395 474 282 590 176 289 362 783 
51 233 217 549 126 676 209 730 764 
311 763 66 61 108 89 155 178 364 
895 598 171 581 161 159 204 219 333 
142 200 340 452 518 185 31 123 273 
113 544 577 652 290 281 57 143 853 
106 1012 109 75 887 274 1359 588 360 
154 13 879 137 44 1166 1234 323 820 
1067 713 881 943 673 174 447 737 646 
508 872 439 891 427 1190 479 911 296 
35 196 2621 1032 1070 636 611 275 46 
556 287 865 756 318 686 10 569 252 
188 772 709 1061 1118 59 974 734 968 
62 1238 1028 1653 80 810 1080 714 192 
1056 1922 6 190 1846 342 319 293 735 
308 49 146 578 90 71 659 967 130 
41 231 279 693 725 697 330 78 800 
538 1236 812 944 794 592 910 523 956 
350 639 1899 1138 272 770 1517 1498 1575 
2494 782 70 888 550 1 529 269 19 
1077 1060 1004 688 896 1660 972 223 700 
678 315 600 576 1094 1884 430 1293 1829 
110 2226 436 43 877 1859 748 1682 1570 
1144 695 54 786 180 221 118 717 1232 
934 1310 1212 624 1035 1592 1697 2033 1264 
1164 2117 982 1448 2386 2420 2431 2511 2287 
2500 2378 2447 2086 1311 1601 2645 1338 1376 
2392 1577 189 2630 2614 1757 2460 139 1193 
345 741 450 947 591 465 719 628 42 
747 813 787 492 238 1216 1230 566 1333 
1091 1398 1189 1427 898 1452 1488 1124 1020 
1401 1298 1170 1831 957 1320 1598 1437 1184 
1692 1828 1202 1460 1984 1738 1648 2467 1963 
1434 1796 1105 1865 1767 1929 2072 2099 1416 
1578 482 12 952 1439 831 534 1423 1406 
483 1483 1512 752 1805 1576 1373 1860 1625 
1455 1942 1926 1520 1143 2021 980 1825 2481 
2583 1893 2706 348 775 1662 1285 2759 2168 
1702 2244 1650 946 904 1081 1343 1394 1698 
1342 978 1208 1350 919 780 353 1294 1180 
1462 1467 1552 1602 1621 861 1643 1539 1330 
1192 1614 1693 1618 1221 1915 1869 1655 2193 
2263 2270 1753 862 1775 2004 1958 2243 1017 
2348 1955 144 1563 2594 2603 2121 2261 2026 
2662 1876 1794 2201 2403 2393 1755 1935 2010 
1931 1219 152 1292 512 1288 1048 1415 1087 
1176 1269 1507 1574 1472 1590 1634 908 1646 
1927 1897 1370 1243 1978 1881 1514 1925 1768 
1527 1106 1323 1090 1837 1015 1974 1267 2065 
1758 2303 1910 2198 1480 1103 138 162 259 
522 337 638 506 1084 1355 1451 412 1607 
1529 1290 1449 1761 1760 1611 2278 2306 2343 
2387 2407 2421 2423 2493 672 2537 1872 1792 
2484 2573 2427 1993 2455 2622 1291 2548 2570 
897 1168 2337 2449 1136 2381 2530 1987 1870 
2301 505 886 1249 1154 609 1134 1340 1678 
1703 1095 1815 1348 1594 2043 1867 1793 2242 
2245 2266 1954 924 1762 640 2323 2362 2347 
1361 2202 2451 1083 835 2305 2225 2408 2304 
2444 2574 698 2317 2404 1854 2390 2376 2252 
2577 2505 2439 2247 1786 2469 2412 2345 1409 
1113 1044 557 304 1142 1335 1414 1016 1531 
1329 1318 1305 1258 1695 1224 878 1213 1447 
1603 1403 1445 1362 1442 1626 1534 1579 1468 
1227 1812 2044 959 2008 1699 2478 2311 809 
1420 2382 1073 249 535 844 366 680 733 
1108 316 1276 91 2422 2458 1177 2542 457 
451 2629 2527 2634 2713 2553 1679 1568 2694 
1309 2689 2152 2534 2692 2551 2359 2554 1281 
1167 960 471 2018 1353 1419 1019 1043 1107 
901 1149 1482 1265 1705 1716 912 1346 1743 
1661 1181 1802 2083 2003 2194 2275 2389 2032 
2452 2454 2284 2416 2499 2510 2516 2535 2094 
2488 2581 2217 1544 2632 1708 1674 2391 2674 
1882 1746 2344 2720 2027 2737 2417 2536 856 
2471 2239 2125 2108 1273 889 1862 986 1145 
1120 909 268 1278 1033 1307 1018 973 1148 
990 1003 374 394 326 650 848 993 996 
892 1261 1117 1268 1422 1663 1559 1709 1051 
1506 1747 1549 1023 876 981 1011 1819 811 
1101 1803 1877 1140 1727 1165 1657 2373 2267 
2203 1827 2552 2428 949 1372 626 615 1537 
1179 1186 682 1301 1497 519 247 309 554 
1215 570 386 433 1432 1357 1909 1822 545 
1443 1681 1953 2501 533 2560 1404 1745 1895 
2219 1635 2192 2459 2123 1644 2712 1996 1645 
2204 2579 2017 2380 1902 669 1985 802 1131 
641 1741 1930 1622 1487 514 1484 621 1777 
328 1571 1100 883 453 1194 1240 1701 1713 
1766 1486 1807 985 1864 1188 1319 1889 1511 
1688 1548 1689 1788 1097 1530 1133 1123 2047 
1543 1024 1608 1513 1444 1490 1297 2169 1948 
2503 1988 1933 1494 969 1334 1135 1546 1431 
1062 499 804 970 1155 1271 1289 963 1299 
1411 1426 847 1088 927 1430 1855 1951 1632 
1671 1728 2029 1509 1205 1521 1286 1551 1863 
1957 859 1026 1384 1481 2172 1351 668 1378 
2185 1901 236 584 1664 987 608 814 762 
1853 1030 920 1390 579 1242 1596 423 1251 
855 712 543 402 3 740 265 674 1547 
1174 495 1995 2195 1569 1834 2255 1824 2653 
424 2282 2187 347 1387 2073 2146 2151 242 
2087 40 1306 1565 335 405 1201 371 496 
1151 792 1089 278 467 1656 1538 649 1332 
431 976 1907 1156 1383 593 1169 2214 1630 
2356 2046 1776 1146 2350 1721 1956 711 2318 
1748 502 1994 2274 1510 2224 2450 1115 1327 
931 1322 2163 917 2059 1477 935 485 1363 
410 168 133 769 776 702 415 573 73 
785 661 1102 690 829 777 1200 808 687 
1683 531 1676 846 124 2514 1750 1005 470 
258 74 689 1801 1658 1402 1550 788 354 
1382 603 145 704 658 977 1453 1616 1421 
551 122 230 1260 637 525 866 194 357 
567 510 487 936 1058 1054 1524 620 607 
822 1810 94 1735 797 1501 88 331 1199 
1466 1706 11 489 781 923 147 81 493 
760 1010 580 1127 1171 1218 1237 1255 1354 
1393 1175 778 716 1277 1368 1248 1782 1740 
414 1352 24 1980 1668 116 595 26 1045 
1132 361 884 721 1079 727 1112 129 1966 
1428 112 1456 8 653 306 48 863 445 
222 186 455 45 313 477 851 38 438 
67 564 179 1751 1642 1585 1037 642 526 
271 411 1074 84 469 696 255 1052 882 
355 1129 1280 478 2546 768 1055 303 773 
267 791 665 378 899 379 1187 421 244 
446 381 165 1076 105 218 694 806 634 
264 7 1163 854 96 251 2211 922 1425 
843 2241 2315 2496 2569 1034 2295 2401 619 
2497 766 86 2507 771 894 1612 574 532 
667 373 860 703 926 736 325 720 102 
1283 1039 1304 1316 1433 1599 1345 464 1160 
1789 1556 2233 2098 540 795 187 1615 197 
1071 1159 140 1125 1204 1126 344 964 157 
104 18 456 225 39 117 14 589 250 
131 873 418 377 1226 2636 2704 2724 2726 
2602 1182 2688 2669 679 2234 953 1279 948 
226 314 332 558 745 76 299 629 167 
351 210 149 69 565 560 22 744 644 
132 56 215 53 284 869 229 183 906 
2058 2218 107 651 2236 417 757 2197 363 
2533 513 1562 468 101 1185 559 20 184 
443 29 422 473 182 302 288 87 125 
79 195 435 173 277 206 563 605 664 
393 1013 630 1042 516 498 239 1114 407 
141 298 257 163 235 2620 458 376 134 
398 358 52 329 93 481 655 85 253 
312 606 746 166 2687 2768 2783 1979 2810 
2814 390 486 842 1492 596 388 466 151 
599 320 156 175 997 971 208 583 929 
548 472 1284 463 406 633 731 823 98 
1429 850 286 1557 212 399 1066 1816 940 
1778 836 824 99 2209 1364 2109 1379 2721 
1374 536 979 839 369 515 392 868 625 
494 684 774 942 148 25 170 34 507 
524 15 572 845 613 1065 1116 5 604 
723 759 459 1038 322 2 1064 1397 425 
724 841 2066 627 16 1903 663 1326 2584 
1392 758 2212 47 1203 365 160 17 92 
202 136 211 115 372 334 77 631 164 
1072 989 585 801 1082 419 1111 983 120 
962 400 1315 1296 1210 1454 726 1502 1473 
1515 1525 1495 837 1436 975 1489 1610 1769 
1110 2126 1233 1446 1496 1629 2186 2036 1694 
2069 1369 2093 2078 1754 657 1407 237 521 
1567 1617 1053 685 401 1078 1314 1001 488 
742 617 343 1085 1029 1339 647 718 1295 
1198 675 2031 2038 409 1582 915 2240 1535 
1270 1122 1972 1130 509 97 1410 1225 798 
1104 1022 1197 1257 571 938 858 941 958 
1040 893 890 1086 1096 213 1231 1324 715 
932 1883 2184 2015 1969 2039 553 2475 2360 
2388 2476 198 2309 1817 2725 826 1960 2758 
2787 1457 2237 984 789 2001 1717 2166 1493 
833 874 33 30 432 172 648 677 691 
1256 1312 1458 1021 1229 1287 1558 1566 1770 
1542 1639 1814 937 594 1934 1977 1349 1519 
1764 1250 2067 1832 1560 1672 1441 2118 1670 
1874 2006 662 2525 2426 1253 1961 2529 1450 
1651 2615 1774 2812 1388 2023 1826 832 285 
504 928 1696 1331 1508 1474 36 2060 1627 
1302 2207 1613 1890 2253 1667 2576 2134 2355 
1772 1726 1835 1680 1196 1247 1545 2090 2429 
1765 476 1677 1840 2289 2293 2294 2352 2397 
2068 2413 2425 2433 2434 2442 1763 2473 2492 
2509 2524 2562 2609 2260 2618 2648 2664 1711 
2681 2254 2598 2784 2793 2395 582 260 2265 
838 2385 1137 542 1413 1440 1377 1714 1734 
1356 1941 1964 1914 2028 2035 2049 2106 1371 
2171 2191 1917 1858 2396 1386 1516 1885 2464 
2470 2009 2547 2556 2587 2596 2248 2670 2691 
2743 2769 2781 1604 2821 2779 1491 991 2671 
338 245 1584 1861 1139 1918 1669 1808 1991 
1998 2000 1583 2020 1581 1975 2208 2002 1209 
2199 2290 1986 1806 2122 2406 2437 2180 2110 
2231 2550 2292 1609 2565 2435 2607 1939 2363 
2354 1687 2776 2798 2813 2824 1673 2608 1275 
2143 2411 1771 2097 2491 2196 1041 2310 1659 
1989 2131 2135 2229 2279 2319 2326 2338 2377 
2419 2515 2269 2613 2616 2646 2650 2652 2656 
1025 2463 2479 2710 2468 2714 2719 2727 2440 
2786 2708 2258 2575 1636 1842 2523 2487 2232 
1981 1790 1121 1729 1868 305 1461 1932 2013 
2022 1606 2162 2188 2215 1654 2257 2259 1263 
2325 2181 2333 2341 2365 2400 2405 2430 2495 
2522 2557 2559 2572 2610 1438 2641 2644 1381 
2675 2685 2695 2696 2705 2709 2734 2752 2760 
2800 2808 2816 2371 2141 1141 1007 2100 2145 
2164 2142 2154 2330 2456 2394 2564 1733 2589 
2604 2612 2626 2628 2631 2633 2637 2639 2660 
2666 60 2686 2697 2528 2718 2679 2738 1417 
2772 2818 2297 2532 2438 2448 2324 2249 1587 
2332 2357 2379 2410 2443 2453 2502 2517 2519 
2585 2586 2327 2619 2625 2627 2647 2661 2672 
2673 2676 2690 2693 2446 2716 2757 2797 2803 
2161 2827 2272 2409 2361 1647 2228 2302 1821 
2190 1147 2173 1093 1528 1047 900 1399 1561 
1983 1161 2316 2369 2418 2508 2521 2582 2623 
1844 2711 2749 2756 2770 2795 2801 2819 2823 
2543 1533 2684 2485 1464 1908 2052 2128 2089 
1736 1424 749 1435 1000 1780 1851 1949 2273 
2578 2591 2595 2597 2600 2658 2665 2667 2680 
2715 2717 2739 2741 2747 2753 2754 2755 2794 
2807 2398 2349 2346 2624 1947 1923 1965 1898 
2329 2335 2366 2445 2461 2482 2486 2489 2504 
2506 2555 2566 2567 2590 2593 2605 2642 2643 
2651 2655 2707 2728 2729 2730 2732 2744 2763 
2773 2778 2780 2790 2796 2799 2804 2805 2545 
1943 1572 2520 925 2291 2544 1911 2053 1818 
1880 1400 2074 2271 2280 2216 2103 1891 1222 
1724 1852 2014 2034 2045 2051 2112 2182 2235 
2264 2276 2281 2308 2312 2513 2526 2571 2588 
2599 2638 2663 2677 2682 2683 2699 2700 2723 
2742 2746 2767 2774 2792 1624 1536 2007 1967 
2606 2153 1843 2107 1191 1152 1920 1469 2085 
2057 1245 1944 1720 2084 2160 1715 1847 597 
623 1945 2096 2124 2174 2223 2531 2558 2561 
2654 2735 2750 1936 2764 2788 2817 2436 1600 
2256 1586 1652 1962 1591 2165 1950 2019 1813 
1928 1470 1887 1597 1385 1666 1690 1838 1938 
1982 2041 1485 2113 2210 2299 2364 2512 2518 
2541 2592 2649 2136 1990 2733 2748 2765 2777 
2785 2806 1623 602 2177 1691 1465 2205 1254 
2220 2175 2296 2037 1866 2321 1684 2336 2133 
2246 1722 2092 1912 1798 1628 2075 2129 1894 
2150 1823 1871 1375 1554 1317 950 1641 1049 
1235 1730 1892 1905 2080 2189 2050 2222 2268 
1742 2370 2375 1518 2809 2055 2277 2147 1799 
1731 1873 1619 454 1785 2005 2149 2139 261 
1098 875 2064 1959 2120 2130 1833 2081 1707 
2102 500 2339 2040 2030 2288 1992 1396 2011 
1848 1262 999 799 1476 1540 1580 1896 2024 
2095 2115 2116 2127 2183 2200 1718 2286 2313 
2358 2399 2490 2320 2668 2740 1092 2762 2802 
2230 2148 1640 2167 2251 1504 2071 1787 921 
1075 753 1752 2206 2178 654 2114 2262 2158 
1478 2111 1971 1162 705 821 1756 1797 1875 
2062 2170 2213 2227 2298 2314 2342 2432 2441 
1685 2457 2465 2477 2483 2498 1700 396 2635 
2703 2307 1820 965 2384 2751 2138 2791 2822 
2076 1367 1459 2048 1916 1620 1749 426 1773 
1595 966 2334 670 1638 367 1573 2179 2340 
1408 961 1952 1391 1068 939 520 885 356 
880 930 994 341 671 1800 2159 2353 1675 
728 834 1937 1282 1781 2331 2424 2104 807 
1759 2563 1564 2322 1849 1723 1940 1841 701 
2402 1888 1244 1900 1128 2101 1857 2016 738 
1344 2144 2132 1878 2012 916 1605 441 1997 
1633 1830 1976 462 537 1737 1503 852 1036 
1856 1999 2061 2077 1845 2140 1500 1336 2082 
2137 2466 1252 903 2285 2474 428 1631 2568 
2300 907 1593 1308 1725 1220 1157 2176 2157 
1471 382 1412 1059 1150 1463 1879 1946 1970 
352 2042 1246 2054 2056 1732 2105 1366 1223 
2414 616 2472 2538 2539 2540 2549 1924 547 
2611 511 491 403 1499 955 827 1589 739 
1779 2367 1744 1347 1919 2070 2155 1968 384 
1009 632 1099 1031 1526 1069 1588 706 327 
1719 346 754 150 227 793 914 1804 1008 
1109 2250 828 1811 2025 575 461 643 413 
913 1178 707 301 905 871 1913 803 902 
2156 2238 1214 1973 2221 1523 1886 37 1712 
528 1704 1241 1839 555 1904 601 1836 840 
765 1739 437 945 1553 933 1274 1207 55 
767 383 614 193 1153 475 2374 2415 2462 
444 2601 790 2328 2640 2701 2091 2480 1217 
1921 1272 2063 103 1300 681 397 660 1057 
1522 1228 692 1266 1532 796 1158 1173 1183 
699 1259 1303 1360 1365 1637 1649 1710 1783 
1791 1809 1505 1479 2283 387 1325 2617 1395 
817 416 321 1389 317 2088 541 645 2678 
586 385 2580 656 610 779 191 562 992 
266 1239 1686 181 857 2351 280 9 2659 
2702 743 2722 2761 2775 2789 2745 2766 297 
2657 2771 2815 2820 2825 1906 50 95 830 
1541 263 729 988 375 1358 750 243 270 
849 708 1014 276 539 295 1119 1027 761 
732 4 283 119 635 1002 818 1321 1341 
1784 1211 2368 2383 1063 1418 819 618 568 
114 292 254 622 201 449 1172 2119 1050 
1313 951 867 349 205 216 1380 203 1206 
232 1006 207 128 82 434 127 497 359 
72 546 262 420 23 805 825 918 2372 
2079 666 1795 158 1850 1046 995 83 1337 
1555 1665 389 404 68 1475 683 1405 214 
234 294 408 517 552 1328 755 612 391 
484 530 480 440 65 248 63 135 169 
246 336 339 224 429 111 58 177 310 
240 21 27 460 751 2698 2731 2782 2811 
2826 2828 2829 2830 
type 1 2830 int
1 1 1 1 1 1 1 1 1 
1 1 1 1 1 1 1 1 1 
1 1 1 1 1 1 1 1 1 
1 1 1 1 1 1 1 1 1 
1 1 1 1 1 1 1 1 1 
1 1 1 1 1 1 1 1 1 
1 1 1 1 1 1 1 1 1 
1 1 1 1 1 1 1 1 1 
1 1 1 1 1 1 1 1 1 
1 1 1 1 1 1 1 1 1 
1 1 1 1 1 1 1 1 1 
1 1 1 1 1 1 1 1 1 
1 1 1 1 1 1 1 1 1 
1 1 1 1 1 1 1 1 1 
1 1 1 1 1 1 1 1 1 
1 1 1 1 1 1 1 1 1 
1 1 1 1 1 1 1 1 1 
1 1 1 1 1 1 1 1 1 
1 1 1 1 1 1 1 1 1 
1 1 1 1 1 1 1 1 1 
1 1 1 1 1 1 1 1 1 
1 1 1 1 1 1 1 1 1 
1 1 1 1 1 1 1 1 1 
1 1 1 1 1 1 1 1 1 
1 1 1 1 1 1 1 1 1 
1 1 1 1 1 1 1 1 1 
1 1 1 1 1 1 1 1 1 
1 1 1 1 1 1 1 1 1 
1 1 1 1 1 1 1 1 1 
1 1 1 1 1 1 1 1 1 
1 1 1 1 1 1 1 1 1 
1 1 1 1 1 1 1 1 1 
1 1 1 1 1 1 1 1 1 
1 1 1 1 1 1 1 1 1 
1 1 1 1 1 1 1 1 1 
1 1 1 1 1 1 1 1 1 
1 1 1 1 1 1 1 1 1 
1 1 1 1 1 1 1 1 1 
1 1 1 1 1 1 1 1 1 
1 1 1 1 1 1 1 1 1 
1 1 1 1 1 1 1 1 1 
1 1 1 1 1 1 1 1 1 
1 1 1 1 1 1 1 1 1 
1 1 1 1 1 1 1 1 1 
1 1 1 1 1 1 1 1 1 
1 1 1 1 1 1 1 1 1 
1 1 1 1 1 1 1 1 1 
1 1 1 1 1 1 1 1 1 
1 1 1 1 1 1 1 1 1 
1 1 1 1 1 1 1 1 1 
1 1 1 1 1 1 1 1 1 
1 1 1 1 1 1 1 1 1 
1 1 1 1 1 1 1 1 1 
1 1 1 1 1 1 1 1 1 
1 1 1 1 1 1 1 1 1 
1 1 1 1 1 1 1 1 1 
1 1 1 1 1 1 1 1 1 
1 1 1 1 1 1 1 1 1 
1 1 1 1 1 1 1 1 1 
1 1 1 1 1 1 1 1 1 
1 1 1 1 1 1 1 1 1 
1 1 1 1 1 1 1 1 1 
1 1 1 1 1 1 1 1 1 
1 1 1 1 1 1 1 1 1 
1 1 1 1 1 1 1 1 1 
1 1 1 1 1 1 1 1 1 
1 1 1 1 1 1 1 1 1 
1 1 1 1 1 1 1 1 1 
1 1 1 1 1 1 1 1 1 
1 1 1 1 1 1 1 1 1 
1 1 1 1 1 1 1 1 1 
1 1 1 1 1 1 1 1 1 
1 1 1 1 1 1 1 1 1 
1 1 1 1 1 1 1 1 1 
1 1 1 1 1 1 1 1 1 
1 1 1 1 1 1 1 1 1 
1 1 1 1 1 1 1 1 1 
1 1 1 1 1 1 1 1 1 
1 1 1 1 1 1 1 1 1 
1 1 1 1 1 1 1 1 1 
1 1 1 1 1 1 1 1 1 
1 1 1 1 1 1 1 1 1 
1 1 1 1 1 1 1 1 1 
1 1 1 1 1 1 1 1 1 
1 1 1 1 1 1 1 1 1 
1 1 1 1 1 1 1 1 1 
1 1 1 1 1 1 1 1 1 
1 1 1 1 1 1 1 1 1 
1 1 1 1 1 1 1 1 1 
1 1 1 1 1 1 1 1 1 
1 1 1 1 1 1 1 1 1 
1 1 1 1 1 1 1 1 1 
1 1 1 1 1 1 1 1 1 
1 1 1 1 1 1 1 1 1 
1 1 1 1 1 1 1 1 1 
1 1 1 1 1 1 1 1 1 
1 1 1 1 1 1 1 1 1 
1 1 1 1 1 1 1 1 1 
1 1 1 1 1 1 1 1 1 
1 1 1 1 1 1 1 1 1 
1 1 1 1 1 1 1 1 1 
1 1 1 1 1 1 1 1 1 
1 1 1 1 1 1 1 1 1 
1 1 1 1 1 1 1 1 1 
1 1 1 1 1 1 1 1 1 
1 1 1 1 1 1 1 1 1 
1 1 1 1 1 1 1 1 1 
1 1 1 1 1 1 1 1 1 
1 1 1 1 1 1 1 1 1 
1 1 1 1 1 1 1 1 1 
1 1 1 1 1 1 1 1 1 
1 1 1 1 1 1 1 1 1 
1 1 1 1 1 1 1 1 1 
1 1 1 1 1 1 1 1 1 
1 1 1 1 1 1 1 1 1 
1 1 1 1 1 1 1 1 1 
1 1 1 1 1 1 1 1 1 
1 1 1 1 1 1 1 1 1 
1 1 1 1 1 1 1 1 1 
1 1 1 1 1 1 1 1 1 
1 1 1 1 1 1 1 1 1 
1 1 1 1 1 1 1 1 1 
1 1 1 1 1 1 1 1 1 
1 1 1 1 1 1 1 1 1 
1 1 1 1 1 1 1 1 1 
1 1 1 1 1 1 1 1 1 
1 1 1 1 1 1 1 1 1 
1 1 1 1 1 1 1 1 1 
1 1 1 1 1 1 1 1 1 
1 1 1 1 1 1 1 1 1 
1 1 1 1 1 1 1 1 1 
1 1 1 1 1 1 1 1 1 
1 1 1 1 1 1 1 1 1 
1 1 1 1 1 1 1 1 1 
1 1 1 1 1 1 1 1 1 
1 1 1 1 1 1 1 1 1 
1 1 1 1 1 1 1 1 1 
1 1 1 1 1 1 1 1 1 
1 1 1 1 1 1 1 1 1 
1 1 1 1 1 1 1 1 1 
1 1 1 1 1 1 1 1 1 
1 1 1 1 1 1 1 1 1 
1 1 1 1 1 1 1 1 1 
1 1 1 1 1 1 1 1 1 
1 1 1 1 1 1 1 1 1 
1 1 1 1 1 1 1 1 1 
1 1 1 1 1 1 1 1 1 
1 1 1 1 1 1 1 1 1 
1 1 1 1 1 1 1 1 1 
1 1 1 1 1 1 1 1 1 
1 1 1 1 1 1 1 1 1 
1 1 1 1 1 1 1 1 1 
1 1 1 1 1 1 1 1 1 
1 1 1 1 1 1 1 1 1 
1 1 1 1 1 1 1 1 1 
1 1 1 1 1 1 1 1 1 
1 1 1 1 1 1 1 1 1 
1 1 1 1 1 1 1 1 1 
1 1 1 1 1 1 1 1 1 
1 1 1 1 1 1 1 1 1 
1 1 1 1 1 1 1 1 1 
1 1 1 1 1 1 1 1 1 
1 1 1 1 1 1 1 1 1 
1 1 1 1 1 1 1 1 1 
1 1 1 1 1 1 1 1 1 
1 1 1 1 1 1 1 1 1 
1 1 1 1 1 1 1 1 1 
1 1 1 1 1 1 1 1 1 
1 1 1 1 1 1 1 1 1 
1 1 1 1 1 1 1 1 1 
1 1 1 1 1 1 1 1 1 
1 1 1 1 1 1 1 1 1 
1 1 1 1 1 1 1 1 1 
1 1 1 1 1 1 1 1 1 
1 1 1 1 1 1 1 1 1 
1 1 1 1 1 1 1 1 1 
1 1 1 1 1 1 1 1 1 
1 1 1 1 1 1 1 1 1 
1 1 1 1 1 1 1 1 1 
1 1 1 1 1 1 1 1 1 
1 1 1 1 1 1 1 1 1 
1 1 1 1 1 1 1 1 1 
1 1 1 1 1 1 1 1 1 
1 1 1 1 1 1 1 1 1 
1 1 1 1 1 1 1 1 1 
1 1 1 1 1 1 1 1 1 
1 1 1 1 1 1 1 1 1 
1 1 1 1 1 1 1 1 1 
1 1 1 1 1 1 1 1 1 
1 1 1 1 1 1 1 1 1 
1 1 1 1 1 1 1 1 1 
1 1 1 1 1 1 1 1 1 
1 1 1 1 1 1 1 1 1 
1 1 1 1 1 1 1 1 1 
1 1 1 1 1 1 1 1 1 
1 1 1 1 1 1 1 1 1 
1 1 1 1 1 1 1 1 1 
1 1 1 1 1 1 1 1 1 
1 1 1 1 1 1 1 1 1 
1 1 1 1 1 1 1 1 1 
1 1 1 1 1 1 1 1 1 
1 1 1 1 1 1 1 1 1 
1 1 1 1 1 1 1 1 1 
1 1 1 1 1 1 1 1 1 
1 1 1 1 1 1 1 1 1 
1 1 1 1 1 1 1 1 1 
1 1 1 1 1 1 1 1 1 
1 1 1 1 1 1 1 1 1 
1 1 1 1 1 1 1 1 1 
1 1 1 1 1 1 1 1 1 
1 1 1 1 1 1 1 1 1 
1 1 1 1 1 1 1 1 1 
1 1 1 1 1 1 1 1 1 
1 1 1 1 1 1 1 1 1 
1 1 1 1 1 1 1 1 1 
1 1 1 1 1 1 1 1 1 
1 1 1 1 1 1 1 1 1 
1 1 1 1 1 1 1 1 1 
1 1 1 1 1 1 1 1 1 
1 1 1 1 1 1 1 1 1 
1 1 1 1 1 1 1 1 1 
1 1 1 1 1 1 1 1 1 
1 1 1 1 1 1 1 1 1 
1 1 1 1 1 1 1 1 1 
1 1 1 1 1 1 1 1 1 
1 1 1 1 1 1 1 1 1 
1 1 1 1 1 1 1 1 1 
1 1 1 1 1 1 1 1 1 
1 1 1 1 1 1 1 1 1 
1 1 1 1 1 1 1 1 1 
1 1 1 1 1 1 1 1 1 
1 1 1 1 1 1 1 1 1 
1 1 1 1 1 1 1 1 1 
1 1 1 1 1 1 1 1 1 
1 1 1 1 1 1 1 1 1 
1 1 1 1 1 1 1 1 1 
1 1 1 1 1 1 1 1 1 
1 1 1 1 1 1 1 1 1 
1 1 1 1 1 1 1 1 1 
1 1 1 1 1 1 1 1 1 
1 1 1 1 1 1 1 1 1 
1 1 1 1 1 1 1 1 1 
1 1 1 1 1 1 1 1 1 
1 1 1 1 1 1 1 1 1 
1 1 1 1 1 1 1 1 1 
1 1 1 1 1 1 1 1 1 
1 1 1 1 1 1 1 1 1 
1 1 1 1 1 1 1 1 1 
1 1 1 1 1 1 1 1 1 
1 1 1 1 1 1 1 1 1 
1 1 1 1 1 1 1 1 1 
1 1 1 1 1 1 1 1 1 
1 1 1 1 1 1 1 1 1 
1 1 1 1 1 1 1 1 1 
1 1 1 1 1 1 1 1 1 
1 1 1 1 1 1 1 1 1 
1 1 1 1 1 1 1 1 1 
1 1 1 1 1 1 1 1 1 
1 1 1 1 1 1 1 1 1 
1 1 1 1 1 1 1 1 1 
1 1 1 1 1 1 1 1 1 
1 1 1 1 1 1 1 1 1 
1 1 1 1 1 1 1 1 1 
1 1 1 1 1 1 1 1 1 
1 1 1 1 1 1 1 1 1 
1 1 1 1 1 1 1 1 1 
1 1 1 1 1 1 1 1 1 
1 1 1 1 1 1 1 1 1 
1 1 1 1 1 1 1 1 1 
1 1 1 1 1 1 1 1 1 
1 1 1 1 1 1 1 1 1 
1 1 1 1 1 1 1 1 1 
1 1 1 1 1 1 1 1 1 
1 1 1 1 1 1 1 1 1 
1 1 1 1 1 1 1 1 1 
1 1 1 1 1 1 1 1 1 
1 1 1 1 1 1 1 1 1 
1 1 1 1 1 1 1 1 1 
1 1 1 1 1 1 1 1 1 
1 1 1 1 1 1 1 1 1 
1 1 1 1 1 1 1 1 1 
1 1 1 1 1 1 1 1 1 
1 1 1 1 1 1 1 1 1 
1 1 1 1 1 1 1 1 1 
1 1 1 1 1 1 1 1 1 
1 1 1 1 1 1 1 1 1 
1 1 1 1 1 1 1 1 1 
1 1 1 1 1 1 1 1 1 
1 1 1 1 1 1 1 1 1 
1 1 1 1 1 1 1 1 1 
1 1 1 1 1 1 1 1 1 
1 1 1 1 1 1 1 1 1 
1 1 1 1 1 1 1 1 1 
1 1 1 1 1 1 1 1 1 
1 1 1 1 1 1 1 1 1 
1 1 1 1 1 1 1 1 1 
1 1 1 1 1 1 1 1 1 
1 1 1 1 1 1 1 1 1 
1 1 1 1 1 1 1 1 1 
1 1 1 1 1 1 1 1 1 
1 1 1 1 1 1 1 1 1 
1 1 1 1 1 1 1 1 1 
1 1 1 1 1 1 1 1 1 
1 1 1 1 1 1 1 1 1 
1 1 1 1 1 1 1 1 1 
1 1 1 1 1 1 1 1 1 
1 1 1 1 1 1 1 1 1 
1 1 1 1 1 1 1 1 1 
1 1 1 1 1 1 1 1 1 
1 1 1 1 1 1 1 1 1 
1 1 1 1 1 1 1 1 1 
1 1 1 1 1 1 1 1 1 
1 1 1 1 1 1 1 1 1 
1 1 1 1 1 1 1 1 1 
1 1 1 1 
i 3 2830 int
0 0 0 0 0 0 0 0 0 
0 0 0 0 0 0 0 0 0 
0 0 0 0 0 0 0 0 0 
0 0 0 0 0 0 0 0 0 
0 0 0 0 0 0 0 0 0 
0 0 0 0 0 0 0 0 0 
0 0 0 0 0 0 0 0 0 
0 0 0 0 0 0 0 0 0 
0 0 0 0 0 0 0 0 0 
0 0 0 0 0 0 0 0 0 
0 0 0 0 0 0 0 0 0 
0 0 0 0 0 0 0 0 0 
0 0 0 0 0 0 0 0 0 
0 0 0 0 0 0 0 0 0 
0 0 0 0 0 0 0 0 0 
0 0 0 0 0 0 0 0 0 
0 0 0 0 0 0 0 0 0 
0 0 0 0 0 0 0 0 0 
0 0 0 0 0 0 0 0 0 
0 0 0 0 0 0 0 0 0 
0 0 0 0 0 0 0 0 0 
0 0 0 0 0 0 0 0 0 
0 0 0 0 0 0 0 0 0 
0 0 0 0 0 0 0 0 0 
0 0 0 0 0 0 0 0 0 
0 0 0 0 0 0 0 0 0 
0 0 0 0 0 0 0 0 0 
0 0 0 0 0 0 0 0 0 
0 0 0 0 0 0 0 0 0 
0 0 0 0 0 0 0 0 0 
0 0 0 0 0 0 0 0 0 