# vtk DataFile Version 4.0
Generated by LIGGGHTS
ASCII
DATASET POLYDATA
POINTS 1259 float
0.00645119 0.00428625 0.0220015 0.00223026 0.00168381 0.0215025 0.000500392 0.00142051 0.0205 
0.0066827 0.00168598 0.02075 0.00629999 0.000508797 0.0205 0.00453451 0.00166333 0.0205 
0.000508787 0.00242119 0.0205 0.00313215 0.0036723 0.0205 0.000529833 0.000500775 0.0208951 
0.00101657 0.00383033 0.0209973 0.00427426 0.00273594 0.0205 0.00449721 0.000505244 0.0205 
0.000675529 0.00523666 0.0205 0.000500655 0.00622646 0.0205131 0.0075058 0.00614842 0.0205695 
0.00591363 0.00174417 0.0219348 0.00716361 0.00118793 0.0221775 0.00817985 0.00540371 0.0205183 
0.0080959 0.00219645 0.0207586 0.00850543 0.00700761 0.0218857 0.00908128 0.00298476 0.0205031 
0.0129862 0.00150522 0.0205 0.0112269 0.00258663 0.0205002 0.014937 0.000761916 0.02075 
0.0120529 0.00186918 0.0205 0.0110051 0.000500203 0.0205009 0.0130133 0.00050131 0.0205 
0.0111273 0.00203155 0.022444 0.0119873 0.000697863 0.0205 0.00998976 0.000516078 0.0205346 
0.00876934 0.000762687 0.0207556 0.0100799 0.00292982 0.0205003 0.0139763 0.00167674 0.0205 
0.0104695 0.0016486 0.0208321 0.0108433 0.00360508 0.0204994 0.011284 0.0047908 0.0205 
0.0113687 0.00597623 0.0209534 0.0106136 0.00307811 0.0213337 0.0125981 0.00357158 0.0215731 
0.00927882 0.00188112 0.0205026 0.0113485 0.000757355 0.0216815 0.0136057 0.00492799 0.0205 
0.00910333 0.00189728 0.0215007 0.00959642 0.00457515 0.0212487 0.0132096 0.006288 0.0209999 
0.0147543 0.00535339 0.0207515 0.00993033 0.00242401 0.0217586 0.0143613 0.00407645 0.0205 
0.0153151 0.0045279 0.0215049 0.0152379 0.00268529 0.0212498 0.008328 0.00210419 0.0223488 
0.0104313 0.00696606 0.0224375 0.00867028 0.00309919 0.0224336 0.0164369 0.000750061 0.02075 
0.0232498 0.00075219 0.0207498 0.0224014 0.00328065 0.0205 0.0234965 0.00351538 0.0205 
0.0214911 0.00201111 0.0209999 0.023234 0.00492354 0.0221045 0.0232486 0.00225771 0.0207501 
0.0215848 0.00422098 0.0207553 0.0224905 0.00547778 0.0207624 0.0234989 0.00641523 0.0205046 
0.0202291 0.00339807 0.0207591 0.0174416 0.00402658 0.0212499 0.018529 0.00150005 0.0214997 
0.0229931 0.0010633 0.0224525 0.0227124 0.0032491 0.0220992 0.0190903 0.00427078 0.0205044 
0.0193967 0.00501292 0.0218106 0.0231492 0.00649256 0.0217373 0.0182634 0.00650064 0.0219968 
0.0194742 0.00335257 0.0223576 0.0209941 0.00397138 0.0221222 0.0183063 0.00686059 0.02075 
0.0209534 0.00694393 0.0215002 0.0226892 0.0070052 0.0205005 0.000926846 0.00715588 0.0205583 
0.00290232 0.00801354 0.0205001 0.00601655 0.00852568 0.0205 0.00516284 0.0118278 0.0205 
0.00387666 0.00903905 0.0210027 0.0053479 0.0102703 0.0205 0.00162512 0.00835021 0.0207528 
0.00647346 0.0119462 0.0208393 0.00161794 0.0104112 0.0216566 0.00745482 0.00754093 0.0205 
0.00402669 0.0106471 0.0205 0.000501188 0.0116331 0.0205011 0.000499188 0.00885478 0.0210886 
0.00529004 0.0092427 0.0205 0.000501932 0.0126357 0.0205015 0.000503621 0.0076038 0.021403 
0.00383252 0.010334 0.0217794 0.00773527 0.00871585 0.0216918 0.00524133 0.013956 0.02075 
0.00706552 0.0134485 0.0220962 0.00660716 0.0101298 0.0211042 0.000653331 0.00847822 0.0220056 
0.00449973 0.00963197 0.0223076 0.00630457 0.0103971 0.0222927 0.00474825 0.0122256 0.0217901 
0.00209089 0.0138601 0.0220041 0.00568208 0.00861757 0.022296 0.00698067 0.0116551 0.0224571 
0.00868807 0.0112407 0.0214999 0.0130886 0.0106672 0.0208146 0.0111788 0.00749756 0.0207502 
0.0156487 0.010472 0.0210092 0.0128431 0.0121456 0.02075 0.0117692 0.0129039 0.0205 
0.0146749 0.012672 0.0204998 0.0139982 0.011599 0.0205 0.0114174 0.00949333 0.0217622 
0.0127802 0.00770919 0.0219266 0.00885112 0.00782661 0.0205 0.0119149 0.0112185 0.0205 
0.0141886 0.0116353 0.0217654 0.0153245 0.0135053 0.0205 0.0150171 0.011733 0.0205004 
0.0121961 0.0123673 0.0217966 0.00958722 0.00833363 0.0212145 0.0105196 0.0133155 0.0205 
0.0138309 0.0102502 0.0223966 0.0158676 0.00764726 0.0219998 0.0157532 0.0101017 0.022462 
0.00842697 0.0140294 0.02075 0.0136977 0.0140698 0.0215436 0.0112896 0.0140274 0.0205 
0.0216079 0.0085475 0.0205 0.0229996 0.00839672 0.0210414 0.0183032 0.0107948 0.0217498 
0.0208254 0.0110388 0.0217965 0.0214942 0.00995747 0.021 0.0178052 0.008171 0.0205011 
0.0203788 0.00858154 0.0205 0.0192302 0.00825906 0.0205033 0.023 0.011274 0.0209999 
0.0161589 0.0124544 0.0211704 0.0200243 0.00898538 0.0216607 0.0200699 0.0114718 0.020506 
0.0185061 0.00826509 0.0215311 0.0173284 0.00919593 0.0205005 0.020027 0.0131315 0.0205004 
0.0213407 0.0118771 0.02075 0.0232341 0.0126699 0.0205 0.0234868 0.00996961 0.0216742 
0.0218966 0.00862006 0.0220575 0.0223239 0.0129779 0.0222265 0.0191345 0.0126328 0.0205261 
0.0217987 0.0134536 0.02075 0.0230003 0.0137614 0.0205 0.0167947 0.0137284 0.0222654 
0.0179256 0.0133983 0.0205 0.0234211 0.0133386 0.0216154 0.0182127 0.0134092 0.0220691 
0.00591049 0.0159546 0.0212508 0.00180131 0.0170748 0.021001 0.00480884 0.017246 0.0205 
0.00284223 0.0157963 0.0205 0.0032929 0.0167546 0.0205 0.00050298 0.015583 0.0205001 
0.00758153 0.0158134 0.0205 0.00108066 0.0183503 0.0205058 0.00384381 0.0176575 0.0205 
0.000563651 0.016369 0.0216908 0.00713533 0.017459 0.02075 0.000502124 0.0192532 0.0205 
0.00570473 0.0186869 0.0208117 0.00233923 0.0192302 0.0213757 0.00703868 0.014823 0.0205016 
0.00421045 0.0167005 0.0218046 0.00618696 0.0179631 0.0217304 0.00100049 0.0210073 0.0210207 
0.00748998 0.0198653 0.0215069 0.00425066 0.0208688 0.0212499 0.00447073 0.0183579 0.0223497 
0.00581509 0.0209907 0.0221897 0.00572818 0.019574 0.0224093 0.0120247 0.0148253 0.0205 
0.0098708 0.0168994 0.0220046 0.0152759 0.0155596 0.0205 0.00991067 0.0144048 0.02075 
0.0112452 0.0154518 0.0204997 0.0130269 0.0167204 0.0212499 0.0108382 0.0145422 0.0215803 
0.0140645 0.0189948 0.0212558 0.0115927 0.0150783 0.021985 0.0158782 0.0200934 0.0217617 
0.0136484 0.0211114 0.0205 0.00922134 0.0190597 0.0209076 0.0160553 0.0176134 0.0209999 
0.0163023 0.0153867 0.0205012 0.0175692 0.0179297 0.0205 0.017391 0.0151803 0.0205644 
0.0221626 0.0162614 0.0208944 0.0171877 0.0188885 0.0205 0.0202018 0.0148654 0.0214999 
0.0184291 0.0189876 0.0207538 0.023422 0.014732 0.0205157 0.0234114 0.0168347 0.0205115 
0.0227167 0.019108 0.02075 0.0216646 0.0181124 0.0205154 0.0177095 0.017434 0.0215225 
0.0215644 0.019538 0.0205023 0.0171196 0.0185206 0.0216667 0.0219838 0.0201513 0.0211955 
0.0234586 0.0146619 0.0215153 0.018488 0.0159107 0.0221876 0.0234817 0.0208708 0.0205083 
0.0187695 0.0205156 0.0211285 0.0226483 0.0143103 0.0220011 0.0168745 0.0168935 0.0223795 
0.0170689 0.0149825 0.0220293 0.00197811 0.02387 0.0205 0.00107127 0.0225701 0.0205 
0.000750188 0.0247355 0.02075 0.00146021 0.0240947 0.0219278 0.00304564 0.0251299 0.0212499 
0.00270037 0.0221215 0.0207738 0.00622113 0.0220313 0.0209999 0.00620255 0.0248919 0.0219998 
0.00270887 0.0281395 0.0217498 0.00868881 0.0243886 0.0205 0.012888 0.0264108 0.0205078 
0.0128472 0.024922 0.0205 0.0139877 0.0262608 0.0205 0.0157104 0.0244515 0.0209999 
0.00861028 0.0252795 0.0212921 0.00868215 0.0271301 0.0225103 0.00844835 0.0219112 0.0210627 
0.0103609 0.0248215 0.020921 0.0117263 0.0259521 0.0213596 0.0213632 0.0257977 0.0205936 
0.0219863 0.0214666 0.0207517 0.0215616 0.0277507 0.0212577 0.0196945 0.0272859 0.0211247 
0.0218919 0.023593 0.0214999 0.0183764 0.0271891 0.0205 0.0234497 0.0271612 0.0212076 
0.0172622 0.0217657 0.0229115 0.0234927 0.0282112 0.022354 0.000507645 0.0306312 0.0205033 
0.00289955 0.0343784 0.0219999 0.00105741 0.0314779 0.0205 0.00342494 0.0306713 0.0207965 
0.00109027 0.0327136 0.02075 0.00525043 0.0325885 0.0207663 0.00634708 0.03316 0.0205 
0.0054998 0.0299579 0.0209999 0.000786817 0.0345695 0.0205 0.00655909 0.0289917 0.0205 
0.00493372 0.0318888 0.0221272 0.0075158 0.0298788 0.0205377 0.000518533 0.0337199 0.0212728 
0.00779124 0.0331539 0.0205069 0.00749832 0.0347653 0.0205098 0.0094815 0.0310999 0.0205 
0.014908 0.0301299 0.0205 0.0118847 0.0316643 0.0205302 0.00846415 0.0290955 0.0205097 
0.0103731 0.0315948 0.0205 0.0110241 0.0298798 0.0218159 0.00842475 0.0340824 0.0218628 
0.0139162 0.0311196 0.0207701 0.01097 0.0332102 0.0212499 0.0149988 0.0329749 0.0218906 
0.00802035 0.0313041 0.0215781 0.00933909 0.0331256 0.0205 0.0197869 0.0285342 0.0207511 
0.0165042 0.032852 0.0205234 0.0215086 0.0344676 0.0209999 0.0232262 0.0325167 0.0205 
0.0184105 0.0299532 0.02125 0.0182059 0.0350541 0.021379 0.0233891 0.0293711 0.0224128 
0.00641068 0.0363057 0.0217467 0.00143765 0.0388976 0.0207497 0.00250968 0.0406761 0.0205 
0.00155965 0.0402014 0.0205455 0.000958775 0.0361601 0.0205 0.00291205 0.0373382 0.02075 
0.000527235 0.0399872 0.0205 0.000773466 0.0420796 0.02075 0.00197256 0.0415317 0.0205 
0.00305684 0.0390226 0.02075 0.00348362 0.0423064 0.0207925 0.00382649 0.0404579 0.0205 
0.000787687 0.0375267 0.02075 0.0074563 0.0383799 0.0205195 0.00119914 0.0389557 0.0221712 
0.00533998 0.042428 0.0208194 0.000500909 0.0368666 0.0218319 0.0070345 0.0422158 0.0205 
0.0133553 0.0358198 0.02075 0.00873906 0.0366813 0.02075 0.00974413 0.0415794 0.0205 
0.0113675 0.0387491 0.0205 0.0102123 0.0377316 0.0209999 0.0104881 0.0403456 0.0207564 
0.0083525 0.041028 0.0213102 0.00832582 0.0392014 0.0210857 0.0143076 0.0411939 0.0205363 
0.0158227 0.0372021 0.0205 0.00878864 0.037867 0.022398 0.0119228 0.0363599 0.0208242 
0.0101815 0.0359094 0.0212295 0.0131007 0.042027 0.0207683 0.0119114 0.0374523 0.021521 
0.0117882 0.04106 0.0217074 0.0104352 0.0420826 0.022296 0.0232415 0.0373927 0.0207876 
0.0190092 0.0400795 0.0205 0.0168497 0.0389778 0.0205 0.0178038 0.0393215 0.0205 
0.0234926 0.0392053 0.0205 0.0221412 0.0403032 0.0214999 0.0191567 0.0384354 0.0207555 
0.021861 0.0381929 0.0207546 0.0234681 0.0424371 0.0205 0.0167766 0.0373146 0.0209789 
0.0174002 0.0419029 0.0209267 0.0163839 0.0386139 0.021622 0.020878 0.0375617 0.0217123 
0.0192042 0.0372278 0.0218122 0.0185526 0.0419019 0.0219102 0.00110732 0.0440375 0.0209999 
[...]
POINT_DATA 1259
FIELD FieldData 7
id 1 1259 int
324 291 368 784 32 241 815 448 300 
442 816 710 527 256 870 100 153 228 
561 392 490 199 395 474 282 590 176 
364 289 362 370 783 51 233 217 636 
171 549 126 307 676 209 730 764 311 
192 763 66 61 108 1195 1197 868 178 
161 159 204 219 333 142 200 340 452 
518 185 31 123 273 113 544 577 652 
290 281 190 57 143 722 588 274 360 
64 380 75 154 98 121 427 13 390 
879 137 503 1064 1070 44 401 1166 587 
1104 938 1234 323 842 941 35 275 46 
80 556 287 714 865 756 318 891 686 
975 189 10 569 447 252 571 33 826 
872 188 772 319 6 293 735 308 49 
146 109 578 139 90 71 659 967 130 
41 231 279 693 725 697 330 78 741 
800 538 1236 439 174 737 713 646 820 
611 70 508 881 695 550 1 529 1067 
943 786 678 221 269 19 1077 436 110 
62 43 709 59 118 1061 198 974 582 
717 1232 260 450 345 592 591 465 350 
719 272 628 42 747 523 813 787 492 
944 956 238 947 812 1216 1230 896 482 
12 700 600 1004 54 180 36 624 152 
780 353 144 978 946 934 1212 1233 512 
566 557 862 1020 982 957 1243 1015 162 
249 259 534 522 672 348 831 535 952 
337 1081 897 980 844 505 261 886 904 
138 919 925 861 471 984 991 1103 698 
609 990 304 1083 1145 909 60 451 433 
386 366 680 519 579 668 247 814 733 
1108 615 554 1186 316 242 640 91 309 
514 641 626 584 949 1018 1019 669 835 
1134 883 802 1033 1101 374 985 268 394 
326 650 959 848 993 996 986 1148 878 
892 1227 423 347 543 855 145 3 402 
354 265 712 424 682 674 704 740 1242 
1251 328 969 495 405 570 453 40 335 
533 403 371 1194 1201 1240 305 410 485 
168 499 804 935 970 859 1097 1155 788 
122 866 525 567 487 357 705 230 771 
637 773 510 489 194 496 467 88 147 
977 923 936 1115 1151 133 711 769 976 
653 8 776 702 415 431 573 73 470 
48 258 785 661 863 1102 1005 649 1146 
1079 306 690 1156 829 331 781 907 94 
1199 361 116 378 899 24 421 446 244 
379 165 381 105 694 619 218 1076 806 
11 373 81 493 760 1010 580 860 1127 
574 1171 593 1218 1160 112 414 778 445 
26 222 186 455 129 45 179 313 477 
564 595 707 634 948 667 264 601 7 
226 332 86 532 314 660 96 540 703 
140 926 187 736 103 325 779 1071 1125 
720 1185 102 1204 1126 271 344 38 696 
84 964 411 469 255 157 104 355 18 
456 478 225 39 117 645 14 541 589 
250 131 586 873 610 656 263 558 745 
76 243 299 629 167 351 210 149 69 
565 560 22 744 644 132 513 56 215 
53 363 284 539 869 568 229 651 559 
20 184 443 29 101 197 422 473 182 
302 288 87 125 79 195 435 173 277 
206 563 605 664 407 393 464 1013 679 
498 239 398 235 408 404 376 257 134 
418 358 52 141 163 9 329 93 481 
234 655 85 253 312 606 458 746 317 
391 385 755 940 596 388 466 151 28 
599 320 156 175 515 997 864 486 237 
971 208 583 929 548 472 625 798 494 
684 774 581 89 155 858 501 942 598 
148 25 220 170 34 507 524 16 15 
572 663 845 97 895 369 954 613 1022 
1065 1116 5 604 958 723 365 459 160 
17 92 202 136 322 2 106 211 724 
47 115 372 334 77 631 841 536 164 
1072 509 463 887 406 998 1001 286 850 
633 836 1066 731 488 839 212 979 824 
1190 823 627 742 685 342 1040 810 893 
1028 890 1080 1086 1096 1118 213 874 759 
1038 1225 1238 968 30 542 419 432 172 
585 794 853 910 648 801 983 1012 677 
989 1082 120 691 1138 425 1111 399 296 
888 911 972 1029 617 673 782 343 647 
1085 476 675 1060 1032 1184 657 715 734 
833 838 662 1122 1130 1164 718 1231 1250 
726 400 932 789 758 837 898 639 770 
1056 1091 1021 1170 1189 1193 594 1210 1229 
576 688 223 245 748 832 315 285 521 
479 409 1110 877 99 1053 1196 1198 430 
196 504 928 1247 597 1203 1139 915 1024 
1035 1078 1094 1121 1128 1180 1208 1124 1105 
1044 908 916 1048 1087 1106 1113 1137 1147 
1176 1202 962 1219 1221 937 483 338 412 
638 506 1073 1144 1168 1174 775 752 1000 
1143 749 1084 1141 1007 1041 1192 553 1249 
1209 623 1205 1142 1011 1017 1120 500 1016 
1026 1090 1093 1117 1149 1153 1181 1213 1136 
1224 457 701 621 236 765 1177 1179 1191 
1215 1245 809 1068 901 912 924 960 1003 
973 1025 1043 1092 1107 1131 1133 1154 1167 
602 1069 384 900 1047 966 876 961 889 
847 856 927 981 1051 1062 1095 1152 1165 
1036 945 762 545 462 608 607 603 620 
822 537 920 987 1030 1098 1100 658 367 
1161 950 799 811 441 885 930 999 1023 
1162 1123 939 738 963 917 670 124 687 
526 520 880 1049 1088 1135 1140 1188 1222 
1235 375 1214 1058 852 551 933 382 807 
754 55 397 547 37 437 791 1244 428 
875 903 921 797 278 792 821 654 727 
356 1054 1055 1089 632 1175 454 1220 1241 
517 562 426 1099 1109 531 965 396 74 
67 739 994 777 931 706 341 884 346 
327 671 689 728 753 808 846 913 1009 
1031 1037 1169 1200 1252 193 444 349 1059 
665 988 95 267 528 922 894 766 767 
251 681 840 555 1034 1158 1163 1173 1187 
750 1228 729 955 867 692 716 834 1075 
1150 1157 1183 1237 1246 828 992 902 502 
1052 416 803 857 352 303 721 227 768 
491 438 642 301 150 793 851 914 1008 
1045 1074 575 511 854 475 614 276 708 
270 795 843 849 953 1014 1050 618 201 
1207 383 1132 796 790 1057 817 699 827 
1039 1046 1112 1182 1206 1211 1223 1226 413 
882 181 191 461 643 616 321 871 905 
377 1129 266 1159 1178 1217 1239 1248 295 
951 1119 417 1027 216 906 254 183 205 
819 232 761 107 732 757 4 203 50 
283 468 119 635 207 114 1002 1063 1006 
818 612 128 995 82 630 830 666 683 
434 127 497 359 72 387 546 262 622 
420 292 23 298 805 825 516 918 1042 
68 552 1172 297 484 530 480 214 158 
440 65 248 83 63 743 135 169 246 
336 339 224 280 429 449 111 58 177 
294 310 240 389 21 27 166 460 751 
1114 1253 1254 1255 1256 1257 1258 1259 
type 1 1259 int
1 1 1 1 1 1 1 1 1 
1 1 1 1 1 1 1 1 1 
1 1 1 1 1 1 1 1 1 
1 1 1 1 1 1 1 1 1 
1 1 1 1 1 1 1 1 1 
1 1 1 1 1 1 1 1 1 
1 1 1 1 1 1 1 1 1 
1 1 1 1 1 1 1 1 1 
1 1 1 1 1 1 1 1 1 
1 1 1 1 1 1 1 1 1 
1 1 1 1 1 1 1 1 1 
1 1 1 1 1 1 1 1 1 
1 1 1 1 1 1 1 1 1 
1 1 1 1 1 1 1 1 1 
1 1 1 1 1 1 1 1 1 
1 1 1 1 1 1 1 1 1 
1 1 1 1 1 1 1 1 1 
1 1 1 1 1 1 1 1 1 
1 1 1 1 1 1 1 1 1 
1 1 1 1 1 1 1 1 1 
1 1 1 1 1 1 1 1 1 
1 1 1 1 1 1 1 1 1 
1 1 1 1 1 1 1 1 1 
1 1 1 1 1 1 1 1 1 
1 1 1 1 1 1 1 1 1 
1 1 1 1 1 1 1 1 1 
1 1 1 1 1 1 1 1 1 
1 1 1 1 1 1 1 1 1 
1 1 1 1 1 1 1 1 1 
1 1 1 1 1 1 1 1 1 
1 1 1 1 1 1 1 1 1 
1 1 1 1 1 1 1 1 1 
1 1 1 1 1 1 1 1 1 
1 1 1 1 1 1 1 1 1 
1 1 1 1 1 1 1 1 1 
1 1 1 1 1 1 1 1 1 
1 1 1 1 1 1 1 1 1 
1 1 1 1 1 1 1 1 1 
1 1 1 1 1 1 1 1 1 
1 1 1 1 1 1 1 1 1 
1 1 1 1 1 1 1 1 1 
1 1 1 1 1 1 1 1 1 
1 1 1 1 1 1 1 1 1 
1 1 1 1 1 1 1 1 1 
1 1 1 1 1 1 1 1 1 
1 1 1 1 1 1 1 1 1 
1 1 1 1 1 1 1 1 1 
1 1 1 1 1 1 1 1 1 
1 1 1 1 1 1 1 1 1 
1 1 1 1 1 1 1 1 1 
1 1 1 1 1 1 1 1 1 
1 1 1 1 1 1 1 1 1 
1 1 1 1 1 1 1 1 1 
1 1 1 1 1 1 1 1 1 
1 1 1 1 1 1 1 1 1 
1 1 1 1 1 1 1 1 1 
1 1 1 1 1 1 1 1 1 
1 1 1 1 1 1 1 1 1 
1 1 1 1 1 1 1 1 1 
1 1 1 1 1 1 1 1 1 
1 1 1 1 1 1 1 1 1 
1 1 1 1 1 1 1 1 1 
1 1 1 1 1 1 1 1 1 
1 1 1 1 1 1 1 1 1 
1 1 1 1 1 1 1 1 1 
1 1 1 1 1 1 1 1 1 
1 1 1 1 1 1 1 1 1 
1 1 1 1 1 1 1 1 1 
1 1 1 1 1 1 1 1 1 
1 1 1 1 1 1 1 1 1 
1 1 1 1 1 1 1 1 1 
1 1 1 1 1 1 1 1 1 
1 1 1 1 1 1 1 1 1 
1 1 1 1 1 1 1 1 1 
1 1 1 1 1 1 1 1 1 
1 1 1 1 1 1 1 1 1 
1 1 1 1 1 1 1 1 1 
1 1 1 1 1 1 1 1 1 
1 1 1 1 1 1 1 1 1 
1 1 1 1 1 1 1 1 1 
1 1 1 1 1 1 1 1 1 
1 1 1 1 1 1 1 1 1 
1 1 1 1 1 1 1 1 1 
1 1 1 1 1 1 1 1 1 
1 1 1 1 1 1 1 1 1 
1 1 1 1 1 1 1 1 1 
1 1 1 1 1 1 1 1 1 
1 1 1 1 1 1 1 1 1 
1 1 1 1 1 1 1 1 1 
1 1 1 1 1 1 1 1 1 
1 1 1 1 1 1 1 1 1 
1 1 1 1 1 1 1 1 1 
1 1 1 1 1 1 1 1 1 
1 1 1 1 1 1 1 1 1 
1 1 1 1 1 1 1 1 1 
1 1 1 1 1 1 1 1 1 
1 1 1 1 1 1 1 1 1 
1 1 1 1 1 1 1 1 1 
1 1 1 1 1 1 1 1 1 
1 1 1 1 1 1 1 1 1 
1 1 1 1 1 1 1 1 1 
1 1 1 1 1 1 1 1 1 
1 1 1 1 1 1 1 1 1 
1 1 1 1 1 1 1 1 1 
1 1 1 1 1 1 1 1 1 
1 1 1 1 1 1 1 1 1 
1 1 1 1 1 1 1 1 1 
1 1 1 1 1 1 1 1 1 
1 1 1 1 1 1 1 1 1 
1 1 1 1 1 1 1 1 1 
1 1 1 1 1 1 1 1 1 
1 1 1 1 1 1 1 1 1 
1 1 1 1 1 1 1 1 1 
1 1 1 1 1 1 1 1 1 
1 1 1 1 1 1 1 1 1 
1 1 1 1 1 1 1 1 1 
1 1 1 1 1 1 1 1 1 
1 1 1 1 1 1 1 1 1 
1 1 1 1 1 1 1 1 1 
1 1 1 1 1 1 1 1 1 
1 1 1 1 1 1 1 1 1 
1 1 1 1 1 1 1 1 1 
1 1 1 1 1 1 1 1 1 
1 1 1 1 1 1 1 1 1 
1 1 1 1 1 1 1 1 1 
1 1 1 1 1 1 1 1 1 
1 1 1 1 1 1 1 1 1 
1 1 1 1 1 1 1 1 1 
1 1 1 1 1 1 1 1 1 
1 1 1 1 1 1 1 1 1 
1 1 1 1 1 1 1 1 1 
1 1 1 1 1 1 1 1 1 
1 1 1 1 1 1 1 1 1 
1 1 1 1 1 1 1 1 1 
1 1 1 1 1 1 1 1 1 
1 1 1 1 1 1 1 1 1 
1 1 1 1 1 1 1 1 1 
1 1 1 1 1 1 1 1 1 
1 1 1 1 1 1 1 1 1 
1 1 1 1 1 1 1 1 
i 3 1259 int
0 0 0 0 0 0 0 0 0 
0 0 0 0 0 0 0 0 0 
0 0 0 0 0 0 0 0 0 
0 0 0 0 0 0 0 0 0 
0 0 0 0 0 0 0 0 0 
0 0 0 0 0 0 0 0 0 
0 0 0 0 0 0 0 0 0 
0 0 0 0 0 0 0 0 0 
0 0 0 0 0 0 0 0 0 
0 0 0 0 0 0 0 0 0 
0 0 0 0 0 0 0 0 0 
0 0 0 0 0 0 0 0 0 
0 0 0 0 0 0 0 0 0 
0 0 0 0 0 0 0 0 0 
0 0 0 0 0 0 0 0 0 
0 0 0 0 0 0 0 0 0 
0 0 0 0 0 0 0 0 0 
0 0 0 0 0 0 0 0 0 
0 0 0 0 0 0 0 0 0 
0 0 0 0 0 0 0 0 0 
0 0 0 0 0 0 0 0 0 
0 0 0 0 0 0 0 0 0 
0 0 0 0 0 0 0 0 0 
0 0 0 0 0 0 0 0 0 
0 0 0 0 0 0 0 0 0 
0 0 0 0 0 0 0 0 0 
0 0 0 0 0 0 0 0 0 
0 0 0 0 0 0 0 0 0 
0 0 0 0 0 0 0 0 0 
0 0 0 0 0 0 0 0 0 
0 0 0 0 0 0 0 0 0 
0 0 0 0 0 0 0 0 0 
0 0 0 0 0 0 0 0 0 
0 0 0 0 0 0 0 0 0 
0 0 0 0 0 0 0 0 0 
0 0 0 0 0 0 0 0 0 
0 0 0 0 0 0 0 0 0 
0 0 0 0 0 0 0 0 0 
0 0 0 0 0 0 0 0 0 
0 0 0 0 0 0 0 0 0 
0 0 0 0 0 0 0 0 0 
0 0 0 0 0 0 0 0 0 
0 0 0 0 0 0 0 0 0 
0 0 0 0 0 0 0 0 0 
0 0 0 0 0 0 0 0 0 
0 0 0 0 0 0 0 0 0 
0 0 0 0 0 0 0 0 0 
0 0 0 0 0 0 0 0 0 
0 0 0 0 0 0 0 0 0 
0 0 0 0 0 0 0 0 0 
0 0 0 0 0 0 0 0 0 
0 0 0 0 0 0 0 0 0 
0 0 0 0 0 0 0 0 0 
0 0 0 0 0 0 0 0 0 
0 0 0 0 0 0 0 0 0 
0 0 0 0 0 0 0 0 0 
0 0 0 0 0 0 0 0 0 
0 0 0 0 0 0 0 0 0 
0 0 0 0 0 0 0 0 0 
0 0 0 0 0 0 0 0 0 
0 0 0 0 0 0 0 0 0 
0 0 0 0 0 0 0 0 0 
0 0 0 0 0 0 0 0 0 
0 0 0 0 0 0 0 0 0 
0 0 0 0 0 0 0 0 0 
0 0 0 0 0 0 0 0 0 
0 0 0 0 0 0 0 0 0 
0 0 0 0 0 0 0 0 0 
0 0 0 0 0 0 0 0 0 
0 0 0 0 0 0 0 0 0 
0 0 0 0 0 0 0 0 0 
0 0 0 0 0 0 0 0 0 
0 0 0 0 0 0 0 0 0 
0 0 0 0 0 0 0 0 0 
0 0 0 0 0 0 0 0 0 
0 0 0 0 0 0 0 0 0 
0 0 0 0 0 0 0 0 0 
0 0 0 0 0 0 0 0 0 
0 0 0 0 0 0 0 0 0 
0 0 0 0 0 0 0 0 0 
0 0 0 0 0 0 0 0 0 
0 0 0 0 0 0 0 0 0 
0 0 0 0 0 0 0 0 0 
0 0 0 0 0 0 0 0 0 
0 0 0 0 0 0 0 0 0 
0 0 0 0 0 0 0 0 0 
0 0 0 0 0 0 0 0 0 
0 0 0 0 0 0 0 0 0 
0 0 0 0 0 0 0 0 0 
0 0 0 0 0 0 0 0 0 
0 0 0 0 0 0 0 0 0 
0 0 0 0 0 0 0 0 0 
0 0 0 0 0 0 0 0 0 
0 0 0 0 0 0 0 0 0 
0 0 0 0 0 0 0 0 0 
0 0 0 0 0 0 0 0 0 
0 0 0 0 0 0 0 0 0 
0 0 0 0 0 0 0 0 0 
0 0 0 0 0 0 0 0 0 
0 0 0 0 0 0 0 0 0 
0 0 0 0 0 0 0 0 0 
0 0 0 0 0 0 0 0 0 
0 0 0 0 0 0 0 0 0 
0 0 0 0 0 0 0 0 0 
0 0 0 0 0 0 0 0 0 
0 0 0 0 0 0 0 0 0 
0 0 0 0 0 0 0 0 0 
0 0 0 0 0 0 0 0 0 
0 0 0 0 0 0 0 0 0 
0 0 0 0 0 0 0 0 0 
0 0 0 0 0 0 0 0 0 
0 0 0 0 0 0 0 0 0 
0 0 0 0 0 0 0 0 0 
0 0 0 0 0 0 0 0 0 
0 0 0 0 0 0 0 0 0 
0 0 0 0 0 0 0 0 0 
0 0 0 0 0 0 0 0 0 
0 0 0 0 0 0 0 0 0 
0 0 0 0 0 0 0 0 0 
0 0 0 0 0 0 0 0 0 
0 0 0 0 0 0 0 0 0 
0 0 0 0 0 0 0 0 0 
0 0 0 0 0 0 0 0 0 
0 0 0 0 0 0 0 0 0 
0 0 0 0 0 0 0 0 0 
0 0 0 0 0 0 0 0 0 
0 0 0 0 0 0 0 0 0 
0 0 0 0 0 0 0 0 0 
0 0 0 0 0 0 0 0 0 
0 0 0 0 0 0 0 0 0 
0 0 0 0 0 0 0 0 0 
0 0 0 0 0 0 0 0 0 
0 0 0 0 0 0 0 0 0 
0 0 0 0 0 0 0 0 0 
0 0 0 0 0 0 0 0 0 
0 0 0 0 0 0 0 0 0 
0 0 0 0 0 0 0 0 0 
0 0 0 0 0 0 0 0 0 
0 0 0 0 0 0 0 0 0 
0 0 0 0 0 0 0 0 0 
0 0 0 0 0 0 0 0 0 
0 0 0 0 0 0 0 0 0 
0 0 0 0 0 0 0 0 0 
0 0 0 0 0 0 0 0 0 
0 0 0 0 0 0 0 0 0 
0 0 0 0 0 0 0 0 0 
0 0 0 0 0 0 0 0 0 
0 0 0 0 0 0 0 0 0 
0 0 0 0 0 0 0 0 0 
0 0 0 0 0 0 0 0 0 
0 0 0 0 0 0 0 0 0 
0 0 0 0 0 0 0 0 0 
0 0 0 0 0 0 0 0 0 
0 0 0 0 0 0 0 0 0 
0 0 0 0 0 0 0 0 0 
0 0 0 0 0 0 0 0 0 
0 0 0 0 0 0 0 0 0 
0 0 0 0 0 0 0 0 0 
0 0 0 0 0 0 0 0 0 
0 0 0 0 0 0 0 0 0 
0 0 0 0 0 0 0 0 0 
0 0 0 0 0 0 0 0 0 
0 0 0 0 0 0 0 0 0 
0 0 0 0 0 0 0 0 0 
0 0 0 0 0 0 0 0 0 
0 0 0 0 0 0 0 0 0 
0 0 0 0 0 0 0 0 0 
0 0 0 0 0 0 0 0 0 
0 0 0 0 0 0 0 0 0 
0 0 0 0 0 0 0 0 0 
0 0 0 0 0 0 0 0 0 
0 0 0 0 0 0 0 0 0 
0 0 0 0 0 0 0 0 0 
0 0 0 0 0 0 0 0 0 
0 0 0 0 0 0 0 0 0 
0 0 0 0 0 0 0 0 0 
0 0 0 0 0 0 0 0 0 
0 0 0 0 0 0 0 0 0 
0 0 0 0 0 0 0 0 0 
0 0 0 0 0 0 0 0 0 
0 0 0 0 0 0 0 0 0 
0 0 0 0 0 0 0 0 0 
0 0 0 0 0 0 0 0 0 
0 0 0 0 0 0 0 0 0 
0 0 0 0 0 0 0 0 0 
0 0 0 0 0 0 0 0 0 
0 0 0 0 0 0 0 0 0 
0 0 0 0 0 0 0 0 0 
0 0 0 0 0 0 0 0 0 
0 0 0 0 0 0 0 0 0 
0 0 0 0 0 0 0 0 0 
0 0 0 0 0 0 0 0 0 
0 0 0 0 0 0 0 0 0 
0 0 0 0 0 0 0 0 0 
0 0 0 0 0 0 0 0 0 
0 0 0 0 0 0 0 0 0 
0 0 0 0 0 0 0 0 0 
0 0 0 0 0 0 0 0 0 
0 0 0 0 0 0 0 0 0 
0 0 0 0 0 0 0 0 0 
0 0 0 0 0 0 0 0 0 
0 0 0 0 0 0 0 0 0 
0 0 0 0 0 0 0 0 0 
0 0 0 0 0 0 0 0 0 
0 0 0 0 0 0 0 0 0 
0 0 0 0 0 0 0 0 0 
0 0 0 0 0 0 0 0 0 
0 0 0 0 0 0 0 0 0 
0 0 0 0 0 0 0 0 0 
0 0 0 0 0 0 0 0 0 
0 0 0 0 0 0 0 0 0 
0 0 0 0 0 0 0 0 0 
0 0 0 0 0 0 0 0 0 
0 0 0 0 0 0 0 0 0 
0 0 0 0 0 0 0 0 0 
0 0 0 0 0 0 0 0 0 
0 0 0 0 0 0 0 0 0 
0 0 0 0 0 0 0 0 0 
0 0 0 0 0 0 0 0 0 
0 0 0 0 0 0 0 0 0 
0 0 0 0 0 0 0 0 0 
0 0 0 0 0 0 0 0 0 
0 0 0 0 0 0 0 0 0 
0 0 0 0 0 0 0 0 0 
0 0 0 0 0 0 0 0 0 
0 0 0 0 0 0 0 0 0 
0 0 0 0 0 0 0 0 0 
0 0 0 0 0 0 0 0 0 
0 0 0 0 0 0 0 0 0 
0 0 0 0 0 0 0 0 0 
0 0 0 0 0 0 0 0 0 
0 0 0 0 0 0 0 0 0 
0 0 0 0 0 0 0 0 0 
0 0 0 0 0 0 0 0 0 
0 0 0 0 0 0 0 0 0 
0 0 0 0 0 0 0 0 0 
0 0 0 0 0 0 0 0 0 
0 0 0 0 0 0 0 0 0 
0 0 0 0 0 0 0 0 0 
0 0 0 0 0 0 0 0 0 
0 0 0 0 0 0 0 0 0 
0 0 0 0 0 0 0 0 0 
0 0 0 0 0 0 0 0 0 
0 0 0 0 0 0 0 0 0 
0 0 0 0 0 0 0 0 0 
0 0 0 0 0 0 0 0 0 
0 0 0 0 0 0 0 0 0 
0 0 0 0 0 0 0 0 0 
0 0 0 0 0 0 0 0 0 
0 0 0 0 0 0 0 0 0 
0 0 0 0 0 0 0 0 0 
0 0 0 0 0 0 0 0 0 
0 0 0 0 0 0 0 0 0 
0 0 0 0 0 0 0 0 0 
0 0 0 0 0 0 0 0 0 
0 0 0 0 0 0 0 0 0 
0 0 0 0 0 0 0 0 0 
0 0 0 0 0 0 0 0 0 
0 0 0 0 0 0 0 0 0 
0 0 0 0 0 0 0 0 0 
0 0 0 0 0 0 0 0 0 
0 0 0 0 0 0 0 0 0 
0 0 0 0 0 0 0 0 0 
0 0 0 0 0 0 0 0 0 
0 0 0 0 0 0 0 0 0 
0 0 0 0 0 0 0 0 0 
0 0 0 0 0 0 0 0 0 
0 0 0 0 0 0 0 0 0 
0 0 0 0 0 0 0 0 0 
0 0 0 0 0 0 0 0 0 
0 0 0 0 0 0 0 0 0 
0 0 0 0 0 0 0 0 0 
0 0 0 0 0 0 0 0 0 
0 0 0 0 0 0 0 0 0 
0 0 0 0 0 0 0 0 0 
0 0 0 0 0 0 0 0 0 
0 0 0 0 0 0 0 0 0 
0 0 0 0 0 0 0 0 0 
0 0 0 0 0 0 0 0 0 
0 0 0 0 0 0 0 0 0 
0 0 0 0 0 0 0 0 0 
0 0 0 0 0 0 0 0 0 
0 0 0 0 0 0 0 0 0 
0 0 0 0 0 0 0 0 0 
0 0 0 0 0 0 0 0 0 
0 0 0 0 0 0 0 0 0 
0 0 0 0 0 0 0 0 0 
0 0 0 0 0 0 0 0 0 
0 0 0 0 0 0 0 0 0 
0 0 0 0 0 0 0 0 0 
0 0 0 0 0 0 0 0 0 
0 0 0 0 0 0 0 0 0 
0 0 0 0 0 0 0 0 0 
0 0 0 0 0 0 0 0 0 
0 0 0 0 0 0 0 0 0 
0 0 0 0 0 0 0 0 0 
0 0 0 0 0 0 0 0 0 
0 0 0 0 0 0 0 0 0 
0 0 0 0 0 0 0 0 0 
0 0 0 0 0 0 0 0 0 
0 0 0 0 0 0 0 0 0 
0 0 0 0 0 0 0 0 0 
0 0 0 0 0 0 0 0 0 
0 0 0 0 0 0 0 0 0 
0 0 0 0 0 0 0 0 0 
0 0 0 0 0 0 0 0 0 
0 0 0 0 0 0 0 0 0 
0 0 0 0 0 0 0 0 0 
0 0 0 0 0 0 0 0 0 
0 0 0 0 0 0 0 0 0 
0 0 0 0 0 0 0 0 0 
0 0 0 0 0 0 0 0 0 
0 0 0 0 0 0 0 0 0 
0 0 0 0 0 0 0 0 0 
0 0 0 0 0 0 0 0 0 
0 0 0 0 0 0 0 0 0 
0 0 0 0 0 0 0 0 0 
0 0 0 0 0 0 0 0 0 
0 0 0 0 0 0 0 0 0 
0 0 0 0 0 0 0 0 0 
0 0 0 0 0 0 0 0 0 
0 0 0 0 0 0 0 0 0 
0 0 0 0 0 0 0 0 0 
0 0 0 0 0 0 0 0 0 
0 0 0 0 0 0 0 0 0 
0 0 0 0 0 0 0 0 0 
0 0 0 0 0 0 0 0 0 
0 0 0 0 0 0 0 0 0 
0 0 0 0 0 0 0 0 0 
0 0 0 0 0 0 0 0 0 
0 0 0 0 0 0 0 0 0 
0 0 0 0 0 0 0 0 0 
0 0 0 0 0 0 0 0 0 
0 0 0 0 0 0 0 0 0 
0 0 0 0 0 0 0 0 0 
0 0 0 0 0 0 0 0 0 
0 0 0 0 0 0 0 0 0 
0 0 0 0 0 0 0 0 0 
0 0 0 0 0 0 0 0 0 
0 0 0 0 0 0 0 0 0 
0 0 0 0 0 0 0 0 0 
0 0 0 0 0 0 0 0 0 
0 0 0 0 0 0 0 0 0 
0 0 0 0 0 0 0 0 0 
0 0 0 0 0 0 0 0 0 
0 0 0 0 0 0 0 0 0 
0 0 0 0 0 0 0 0 0 
0 0 0 0 0 0 0 0 0 
0 0 0 0 0 0 0 0 0 
0 0 0 0 0 0 0 0 0 
0 0 0 0 0 0 0 0 0 
0 0 0 0 0 0 0 0 0 
0 0 0 0 0 0 0 0 0 
0 0 0 0 0 0 0 0 0 
0 0 0 0 0 0 0 0 0 
0 0 0 0 0 0 0 0 0 
0 0 0 0 0 0 0 0 0 
0 0 0 0 0 0 0 0 0 
0 0 0 0 0 0 0 0 0 
0 0 0 0 0 0 0 0 0 
0 0 0 0 0 0 0 0 0 
0 0 0 0 0 0 0 0 0 
0 0 0 0 0 0 0 0 0 
0 0 0 0 0 0 0 0 0 
0 0 0 0 0 0 0 0 0 
0 0 0 0 0 0 0 0 0 
0 0 0 0 0 0 0 0 0 
0 0 0 0 0 0 0 0 0 
0 0 0 0 0 0 0 0 0 
0 0 0 0 0 0 0 0 0 
0 0 0 0 0 0 0 0 0 
0 0 0 0 0 0 0 0 0 
0 0 0 0 0 0 0 0 0 
0 0 0 0 0 0 0 0 0 
0 0 0 0 0 0 0 0 0 
0 0 0 0 0 0 0 0 0 
0 0 0 0 0 0 0 0 0 
0 0 0 0 0 0 0 0 0 
0 0 0 0 0 0 0 0 0 
0 0 0 0 0 0 0 0 0 
0 0 0 0 0 0 0 0 0 
0 0 0 0 0 0 0 0 0 
0 0 0 0 0 0 0 0 0 
0 0 0 0 0 0 0 0 0 
0 0 0 0 0 0 0 0 0 
0 0 0 0 0 0 0 0 0 
0 0 0 0 0 0 0 0 0 
0 0 0 0 0 0 0 0 0 
0 0 0 0 0 0 0 0 0 
0 0 0 0 0 0 0 0 0 
0 0 0 0 0 0 0 0 0 
0 0 0 0 0 0 0 0 0 
0 0 0 0 0 0 0 0 0 
0 0 0 0 0 0 0 0 0 
0 0 0 0 0 0 0 0 0 
0 0 0 0 0 0 0 0 0 
0 0 0 0 0 0 0 0 0 
0 0 0 0 0 0 0 0 0 
0 0 0 0 0 0 0 0 0 
0 0 0 0 0 0 0 0 0 
0 0 0 0 0 0 0 0 0 
0 0 0 0 0 0 0 0 0 
0 0 0 0 0 0 0 0 0 
0 0 0 0 0 0 0 0 0 
0 0 0 0 0 0 0 0 0 
0 0 0 0 0 0 0 0 0 
0 0 0 0 0 0 0 0 0 
0 0 0 0 0 0 0 0 0 
0 0 0 0 0 0 0 0 0 
0 0 0 0 0 0 0 0 0 
0 0 0 0 0 0 0 0 0 
0 0 0 0 0 0 0 0 0 
0 0 0 0 0 0 0 0 0 
0 0 0 0 0 0 0 0 0 
0 0 0 0 0 0 0 0 0 
0 0 0 0 0 0 0 0 0 
0 0 0 0 0 0 0 0 0 
0 0 0 0 0 0 0 0 0 
0 0 0 0 0 0 0 0 0 
0 0 0 0 0 0 
v 3 1259 double
0.577979 -0.375595 0.0629001 -0.454603 -0.680232 -0.0281953 4.57449e-05 0.109581 0.00089194 
-0.234597 -0.656045 -0.00044994 -0.805626 0.0568384 4.29134e-08 -0.712598 0.509506 1.29369e-12 
-0.439685 0.141372 4.86876e-07 0.707749 0.320719 1.17883e-09 0.184391 0.0292106 -0.0755003 
0.0342761 -0.402666 -0.826251 -0.231315 0.807815 1.29369e-12 -1.6355 0.00673306 -2.34549e-11 
-0.26229 0.408574 3.15708e-11 0.00533536 0.538618 -0.699985 -0.32364 -0.471742 -0.11647 
0.231495 0.371296 -1.38955 -0.844424 0.0311026 -1.18955 -0.133323 3.80633 0.248277 
-0.177575 -0.702064 0.0549333 0.821784 0.546186 -0.687714 -0.608995 -1.04931 0.151237 
-1.00764 0.0500786 -1.44641e-11 -1.2803 0.347006 0.0115214 0.0407984 -0.0285781 -4.04281e-07 
-1.11567 -0.175559 -4.2052e-12 -0.891417 0.00435739 -0.0146626 -0.472385 -0.00174327 0.00730316 
-1.23981 -0.403855 0.317572 -0.686261 -0.738748 -1.80141e-07 -0.920959 0.124291 -0.734314 
-1.03487 -0.26943 -0.0193562 -0.562623 -0.518344 0.0329653 -0.829056 -0.587452 1.29667e-09 
-0.223198 -0.387631 0.546793 0.146547 -0.785881 -0.340569 -1.16731 0.478233 -2.62048e-11 
-1.41181 0.416809 0.248709 -1.14034 0.00888246 0.395106 -1.20119 0.0161527 0.274133 
-0.141406 -0.568293 -0.00427371 -0.159857 0.0940685 -0.12521 -0.906328 -0.419982 6.34303e-05 
0.030459 -0.401218 -0.342734 0.917861 0.254111 -0.168807 -1.31093 -0.500092 2.92065e-05 
-0.970621 -0.282713 -0.0743851 -0.583897 0.797399 0.622265 -3.2711 -0.651305 4.12809e-08 
-0.889278 -0.411765 -0.219873 -1.04366 0.0719596 -0.00519554 0 0 -0.303595 
0.836419 -1.03556 -0.378556 0.987889 -2.1421 -0.731589 0.0409622 -0.00222134 4.04119e-07 
0.0214927 0.00429672 -0.0039501 -0.0831972 -0.255681 -1.33721e-11 -8.68082e-05 0.0916509 1.77928e-11 
0.0579201 -0.59648 -2.09215e-12 -0.109144 -0.575983 -0.655782 -0.0190469 0.101394 -0.0351159 
-0.425522 -0.551663 0.120041 -0.11888 -0.695835 -0.923303 -0.0348559 -0.483944 -0.0708602 
-1.51781 -1.31236 -1.40972 -0.698239 -0.0130212 1.69173e-05 -0.873814 0.00105602 0.0106821 
0.151047 0.128626 -0.00763161 -0.830057 -0.435796 0.201159 -1.78576 -0.844627 -0.0597046 
-0.55364 -0.313188 -0.706907 0.368198 0.122582 -0.138446 -0.530152 -0.211287 0.319632 
0.486287 -0.288761 -0.811025 -1.40843 -0.403063 0.015117 -0.601583 -0.860655 1.04903e-08 
-0.332471 -0.358237 0.0757932 0.0813834 -0.217339 0.00515997 0.988421 0.504754 -1.88141 
0.798596 0.0750786 -0.00546423 0.381481 -1.36909 -1.45615e-12 0.352041 -0.463493 2.60423e-11 
1.1762 -0.286669 0.0122036 -0.148983 0.146667 3.38662e-10 0.198795 -1.80756 -0.884988 
0.394102 -0.705214 -1.50722 0.717765 -2.83354 1.45364 -0.223215 -1.70546 -2.07051e-11 
0.894068 0.516924 4.04354e-12 0.0888443 -2.38329 0.0784372 0.162095 -2.07039 0.253542 
1.3537 -0.332878 1.55801e-06 0.146417 -2.1898 0.109579 0.0217765 -0.728013 -1.07486 
1.03855 1.00548 -1.6445 0.0503761 0.565477 -0.390041 -0.147813 -0.339381 7.04627e-12 
0.385994 -1.19911 -0.513828 0.0518645 -0.0458036 -0.809657 0.66046 -1.15683 0.383742 
0 0 -0.829411 -0.175043 0.154587 -0.786729 0 0 -0.124808 
0.706497 -2.3964 -0.360798 0 0 -2.38184 -0.13472 -1.46452 -0.738153 
0.255514 -1.55061 1.03892e-05 -1.62162 -0.458518 -0.348944 -2.16142 -0.471003 0.0700212 
0.117268 -0.217057 0.151835 -1.6638 -0.44817 0.00564938 -0.755919 -1.31593 -9.70569e-12 
0.847935 -0.165761 -0.0738996 -0.476021 -0.389444 -8.27155e-11 -1.87271 -0.207462 -0.3056 
-1.44211 -0.0146983 -0.807693 -2.50382 -0.209505 1.68761e-11 -3.34116 0.326816 -2.16217e-11 
1.27144 0.0538402 0.291119 0.578031 0.23723 0.000289028 0.0159572 -0.44044 -0.373224 
-1.78448 0.312269 -0.230615 1.30075 0.35843 -3.5693 -2.03248 -2.11563 1.77928e-11 
-1.56751 0.298714 -0.227039 -0.799934 0.171909 0.000671889 -1.44832 0.0798715 0.372178 
0.80823 -1.45081 1.88146e-11 -0.152647 -1.07274 -0.0215298 -1.50331 -2.41479 -1.33721e-11 
0.0106136 -0.603448 2.12602e-05 -0.00762314 -1.18589 -0.0781361 0.0891152 -0.24813 0.00253588 