# vtk DataFile Version 4.0
Generated by LIGGGHTS
ASCII
DATASET POLYDATA
POINTS 418 float
0.0061418 0.000591104 0.0205614 0.00451334 0.00222822 0.0220138 0.0104353 0.00205146 0.02238 
0.0152366 0.0046978 0.0205066 0.0132614 0.00372747 0.0212512 0.0130826 0.000797564 0.0207767 
0.0115436 0.000805115 0.02075 0.0111263 0.00275656 0.0205063 0.00939523 0.00540032 0.0205528 
0.0129403 0.00126584 0.0225396 0.0106899 0.00443364 0.0220065 0.016566 0.00296283 0.0217635 
0.0224536 0.00691144 0.0207268 0.0198759 0.000874534 0.0207997 0.0210776 0.00577077 0.0215307 
0.0168888 0.00608645 0.0219405 0.019188 0.00300823 0.0213343 0.00589057 0.00939856 0.0205314 
0.00757706 0.0117474 0.0214023 0.0024935 0.0140908 0.0211917 0.00181279 0.0121379 0.021101 
0.00383005 0.0120629 0.0214488 0.0155223 0.00827035 0.022087 0.00914999 0.00955176 0.0213779 
0.00976901 0.0123414 0.0213088 0.0122579 0.01022 0.0206889 0.0108329 0.0128476 0.0218849 
0.0145707 0.0132302 0.0208278 0.0173308 0.00797048 0.0207574 0.021944 0.0139422 0.0207516 
0.0228867 0.0131367 0.0217013 0.0192969 0.00840123 0.0208013 0.0174658 0.0123741 0.021632 
0.0199708 0.0111244 0.0215005 0.0228287 0.014254 0.0226085 0.0211486 0.0128995 0.0223528 
0.00234399 0.0189717 0.0217708 0.00453434 0.0192688 0.0207691 0.00595549 0.016828 0.0207065 
0.00578988 0.0188302 0.0215526 0.00352042 0.02081 0.0207804 0.0137917 0.0167532 0.0224245 
0.0131051 0.0209813 0.0212095 0.0179528 0.0145878 0.0208652 0.0196892 0.014694 0.0205835 
0.0201609 0.0183664 0.022066 0.00213807 0.021503 0.0205044 0.000541473 0.0228929 0.0205898 
0.0040261 0.0237517 0.0220833 0.000993102 0.0276492 0.0215091 0.00190886 0.0281444 0.0208188 
0.00804158 0.0214858 0.0220004 0.00968561 0.0269639 0.020532 0.0135681 0.0240474 0.0205208 
0.0143819 0.0246251 0.021013 0.0125088 0.025804 0.0207972 0.011742 0.0268032 0.0217404 
0.0131481 0.0274502 0.0210715 0.0118237 0.02143 0.0218582 0.0109182 0.0240383 0.0219766 
0.0223637 0.0234415 0.0209835 0.0189095 0.0258038 0.0207286 0.0195009 0.0242172 0.0210981 
0.023498 0.0226317 0.0205825 0.016449 0.0278945 0.0217864 0.0184585 0.0274625 0.0219311 
0.00208435 0.0310918 0.0218 0.00561674 0.0329593 0.0221307 0.0102378 0.0322225 0.02075 
0.0145368 0.0314687 0.0212499 0.0150458 0.0346869 0.0207231 0.00930101 0.0325673 0.0224107 
0.0106362 0.0345062 0.0212122 0.0139091 0.0353134 0.0207765 0.0176649 0.0321929 0.0210102 
0.0163326 0.0313488 0.021343 0.0186072 0.0349946 0.0215988 0.0166465 0.0335593 0.0206905 
0.0199969 0.0327675 0.021482 0.020148 0.0350025 0.0208618 0.022271 0.0312754 0.0220339 
0.00298934 0.0389702 0.0205833 0.00673508 0.0407756 0.0205 0.0023954 0.0370779 0.0219557 
0.00120342 0.0407018 0.0221726 0.0106405 0.0362982 0.0211648 0.0108662 0.0395131 0.0206594 
0.0147288 0.0377974 0.0221532 0.00840009 0.0402154 0.0222633 0.0155157 0.0401074 0.0207072 
0.0183003 0.0406464 0.0212327 0.0164767 0.0388831 0.0216345 0.0221259 0.0413482 0.0210001 
0.0196496 0.0369291 0.0215481 0.0219174 0.0359782 0.02158 0.0177348 0.0392258 0.0208864 
0.00197898 0.0444433 0.0220332 0.00680236 0.049529 0.0210529 0.00475725 0.0468544 0.0205888 
0.00279257 0.0476407 0.0220454 0.00407109 0.0446862 0.0204984 0.00597221 0.0446362 0.0221183 
0.0109563 0.0477789 0.0205 0.0109834 0.0454169 0.0209908 0.0227936 0.0469899 0.02075 
0.0221555 0.0439076 0.0215159 0.0232317 0.048439 0.0210325 0.0178191 0.0464005 0.0243347 
0.00397878 0.0504826 0.021014 0.00154313 0.0501239 0.0221835 0.00299544 0.0529035 0.0220678 
0.00654153 0.0542706 0.0218675 0.0131825 0.0543611 0.0206161 0.00911569 0.0498914 0.0211058 
0.0142231 0.0544836 0.021719 0.0150728 0.0555096 0.0214692 0.00826617 0.0532032 0.0205689 
0.0114071 0.0528253 0.0216461 0.012447 0.0559974 0.0215105 0.0160549 0.0524939 0.0213443 
0.0181374 0.0519517 0.0207422 0.0187446 0.0543326 0.0212499 0.0226661 0.0526127 0.0212592 
0.0221506 0.054984 0.021045 0.0234786 0.0499403 0.0222702 0.00248035 0.0580861 0.0213306 
0.00523029 0.0570375 0.0205113 0.000761396 0.0615692 0.0207921 0.00330846 0.0628455 0.0217584 
0.00938381 0.0571839 0.0213225 0.011018 0.0619206 0.0207579 0.0199065 0.0634538 0.0208306 
0.023011 0.0573558 0.0218173 0.022395 0.0578305 0.0211449 0.0173638 0.057985 0.0216057 
0.0179042 0.0610496 0.0222937 0.000771953 0.0658959 0.020587 0.00508482 0.0698434 0.020754 
0.00765593 0.0693929 0.0207545 0.00180547 0.0647268 0.0218441 0.00607779 0.0683117 0.0223901 
0.0048869 0.0650617 0.0225581 0.0150971 0.0673255 0.0205419 0.0118605 0.0647735 0.0209297 
0.0100642 0.0663902 0.0221646 0.00836198 0.0643941 0.0215978 0.0146111 0.0689555 0.0224393 
0.0189415 0.0640903 0.0213035 0.022202 0.0659303 0.020511 0.0217793 0.0693696 0.0213688 
0.0200514 0.0651685 0.0205622 0.0167943 0.0691572 0.0207621 0.0172288 0.0667184 0.0217612 
0.0199486 0.0668211 0.0214527 0.00407087 0.0761009 0.021 0.000773865 0.0726179 0.0210608 
0.00718121 0.0733742 0.020984 0.00273576 0.0772402 0.0211991 0.00320855 0.0718288 0.0215298 
0.00335662 0.0731492 0.0212076 0.00931007 0.0773392 0.0210583 0.00962452 0.0757185 0.0215169 
0.0143109 0.0759285 0.0218666 0.0113967 0.074696 0.0219069 0.0120477 0.072674 0.0219374 
0.00151796 0.00156085 0.0241156 0.0031373 0.00180644 0.0269385 0.00258687 0.00569667 0.0242036 
0.012787 0.00369442 0.0238614 0.00951604 0.000532637 0.0240198 0.0159005 0.000505512 0.0252162 
0.0132432 0.00650937 0.0234087 0.0102522 0.00702195 0.0227241 0.0100288 0.00413337 0.0237732 
0.00832514 0.00193042 0.0256997 0.00878499 0.00423102 0.0240361 0.0169451 0.00645598 0.0253618 
0.0192405 0.00293077 0.0265442 0.0174667 0.00272205 0.0291182 0.0228765 0.00143965 0.0290425 
0.0231937 0.00116985 0.0243273 0.00805938 0.00917223 0.0283681 0.00538796 0.0112943 0.0226701 
0.00550993 0.012575 0.0268116 0.00152382 0.00928075 0.024294 0.00104118 0.0103161 0.0251267 
0.00649487 0.00824506 0.025375 0.00871844 0.00991841 0.0237655 0.0102024 0.0106426 0.0226839 
0.0152908 0.00949833 0.0234267 0.00981898 0.0118714 0.0255365 0.0109871 0.0118604 0.0235408 
0.0112755 0.0096279 0.0232822 0.0134789 0.0126647 0.0254841 0.0144873 0.0119895 0.0289434 
0.0117278 0.0132333 0.0267335 0.0123635 0.0118067 0.0280688 0.0219823 0.00732376 0.0231738 
0.0181905 0.00990263 0.0232352 0.022773 0.0112896 0.0236575 0.0174879 0.0075982 0.0248881 
0.0194517 0.00745256 0.0235046 0.0224309 0.00808729 0.0246768 0.0195592 0.013491 0.0257045 
0.0207173 0.0102255 0.0269251 0.0231154 0.00969299 0.0291602 0.0229366 0.0119393 0.029162 
0.0209729 0.0109606 0.0238873 0.00101535 0.0171456 0.0258473 0.00781717 0.0181233 0.0228338 
0.00550683 0.0186459 0.0242523 0.00695954 0.0196659 0.023335 0.00106673 0.017025 0.0229314 
0.00566924 0.0196308 0.0224405 0.00787062 0.0142934 0.0241718 0.0063953 0.0163515 0.0278956 
0.00598351 0.0159415 0.0258512 0.0133534 0.0155472 0.025446 0.0131585 0.0189166 0.0226623 
0.014895 0.0180614 0.0228362 0.00980842 0.0147283 0.0238491 0.00858613 0.0188814 0.024653 
0.0102918 0.0206499 0.0227865 0.0140689 0.0171086 0.0267285 0.00956585 0.0185222 0.0237646 
0.0105983 0.016382 0.0289486 0.0130143 0.0207476 0.0261416 0.022791 0.0186536 0.0249787 
0.0210874 0.0198528 0.0250328 0.0172152 0.0164408 0.0255614 0.0180113 0.0151001 0.0237201 
0.0230706 0.0182275 0.0233108 0.0181329 0.0181342 0.0242211 0.0176384 0.0195063 0.0271029 
0.022672 0.019303 0.0287479 0.00533069 0.0213787 0.0238971 0.00190801 0.0244779 0.0275893 
0.00108336 0.0270101 0.0228648 0.000502598 0.0249491 0.0294586 0.00103149 0.0265114 0.0291923 
0.00529626 0.0251294 0.0272755 0.00687156 0.0230209 0.0285105 0.00863121 0.0217135 0.0263798 
0.014304 0.0266736 0.0285776 0.0116199 0.0267525 0.0230051 0.0134539 0.02441 0.0235973 
0.0115857 0.0278428 0.0225549 0.0192406 0.025672 0.0229261 0.0222463 0.0214513 0.0227401 
0.0208705 0.0239994 0.0233237 0.0231629 0.0273929 0.027065 0.0195695 0.0239062 0.0254782 
0.022077 0.027403 0.0237255 0.0221683 0.0254197 0.0289667 0.0200649 0.0201225 0.0269401 
0.0165746 0.0232879 0.0227239 0.00347958 0.0286239 0.0247112 0.00549021 0.0351601 0.0241303 
0.00419583 0.0289237 0.0286457 0.00150132 0.0306489 0.0275333 0.00364769 0.0346245 0.0241672 
0.00640141 0.0285353 0.0283525 0.00723467 0.0323717 0.0259219 0.00377791 0.0336599 0.0265445 
0.0100372 0.0283404 0.0242911 0.0135906 0.02909 0.0234718 0.0111156 0.0300541 0.0232994 
0.017934 0.0333826 0.0264841 0.0233974 0.0324862 0.028425 0.0193636 0.0318044 0.0235067 
0.0195391 0.0346823 0.0239092 0.00075689 0.039582 0.0234842 0.00418041 0.03933 0.0233479 
0.00672359 0.0371576 0.0230457 0.00730909 0.0385176 0.0233287 0.00649888 0.0388307 0.0271921 
0.00435492 0.0403037 0.0257068 0.0142848 0.0388678 0.022469 0.0124527 0.0425461 0.0236245 
0.021702 0.0395443 0.0235843 0.0230865 0.0354329 0.0235777 0.0163868 0.0423088 0.0227003 
0.0222014 0.0370484 0.0258516 0.0210765 0.0366297 0.024168 0.000582794 0.0444427 0.0242444 
0.00540148 0.0476839 0.0237302 0.00398944 0.0432088 0.0246682 0.00164308 0.0495269 0.0246922 
0.00763051 0.049527 0.026711 0.0125656 0.0473673 0.0226469 0.0142324 0.0460486 0.0243976 
0.011667 0.0463872 0.0283196 0.015359 0.047168 0.0279578 0.0229759 0.0439029 0.0239092 
0.0176193 0.0490828 0.0246073 0.0233953 0.0489848 0.0229853 0.0215435 0.0467678 0.0245208 
0.00187517 0.0502852 0.0292985 0.00586512 0.0528414 0.0234922 0.0035935 0.0549166 0.0248579 
0.000536681 0.0529625 0.0242444 0.00209085 0.0507597 0.0272787 0.00125337 0.0565955 0.0248478 
0.00215139 0.0536721 0.0267548 0.00607182 0.0523289 0.0294626 0.00151832 0.0530919 0.023418 
0.00748094 0.056025 0.0287172 0.0145581 0.0511199 0.027624 0.00950546 0.0527222 0.0233607 
0.0108761 0.0530477 0.0251675 0.0143636 0.05318 0.0241301 0.013367 0.0547617 0.0233787 
0.0120603 0.0561223 0.0255148 0.00827044 0.0559391 0.0226333 0.0152777 0.0558056 0.0245391 
0.0221364 0.0501556 0.028058 0.0205768 0.0533955 0.0282189 0.023472 0.0514383 0.0265009 
0.0213988 0.0546137 0.0238368 0.0179025 0.0532309 0.0253594 0.0191588 0.0558893 0.0241566 
0.0188831 0.0508399 0.024135 0.0222027 0.0559268 0.0259336 0.0232199 0.0533749 0.0254864 
0.00330605 0.0576089 0.0276229 0.000551036 0.0605093 0.0274224 0.00179955 0.0578871 0.025874 
0.00227273 0.0587902 0.0289256 0.00116495 0.0626606 0.0234957 0.00399682 0.0597015 0.0230052 
0.00405508 0.0575795 0.0245832 0.00134647 0.06172 0.028736 0.00778641 0.0590141 0.0277889 
0.0127071 0.0631301 0.0246309 0.00811672 0.0636163 0.0289383 0.0147638 0.0633404 0.0267497 
0.0114006 0.0589642 0.0292927 0.0111613 0.0608182 0.0291643 0.0167851 0.059372 0.0258603 
0.0197875 0.0575489 0.0227938 0.019593 0.0619225 0.0251371 0.0225131 0.0579683 0.0224885 
0.0201613 0.0604845 0.0242887 0.0210032 0.0609961 0.0227555 0.0208787 0.0589747 0.0226837 
0.0175727 0.0629902 0.0274142 0.00317204 0.065497 0.0286914 0.0010815 0.0671101 0.0276473 
0.000493532 0.0658197 0.0292142 0.00141946 0.0660292 0.0289201 0.00120954 0.0699872 0.0291807 
0.00053673 0.0676873 0.0243687 0.00731103 0.0668055 0.0243592 0.0018348 0.0695898 0.0243797 
0.00505362 0.0668242 0.0239711 0.00720321 0.068354 0.0291829 0.00507335 0.0641277 0.0251417 
0.00448759 0.0706838 0.0245175 0.00820082 0.06833 0.0270891 0.0093745 0.0651667 0.0239088 
0.0107331 0.0654037 0.0241936 0.00852805 0.0707876 0.0226943 0.011166 0.0657934 0.0268799 
0.0139463 0.0647873 0.0280545 0.00892322 0.0670548 0.0231747 0.0102298 0.0673757 0.024344 
0.0153505 0.0657286 0.0249596 0.00945733 0.0694917 0.0240621 0.00876193 0.070587 0.0241141 
0.014176 0.0642388 0.0229021 0.0186509 0.064259 0.0224527 0.0232159 0.0700564 0.0292349 
0.0224951 0.0704641 0.0224783 0.0194574 0.0659653 0.0237341 0.0213892 0.0649858 0.0272397 
0.0229031 0.0653602 0.0225326 0.0180237 0.0687346 0.0230935 0.017119 0.0698254 0.0238702 
0.0220549 0.067185 0.0237955 0.019049 0.064772 0.0241455 0.0186477 0.0664248 0.0250034 
0.0198858 0.0678488 0.0240459 0.00559994 0.0729121 0.0290324 0.0056759 0.076928 0.0239825 
0.00513543 0.0753334 0.0252572 0.00174448 0.0763668 0.0275338 0.00352372 0.0761732 0.0228883 
0.00659006 0.0750761 0.0249256 0.0076196 0.0735398 0.0250055 0.00727479 0.0761197 0.0239764 
0.00879232 0.0760124 0.0242091 0.00999439 0.0770935 0.0224848 0.00853066 0.0740534 0.0225661 
0.0158062 0.0734498 0.0226063 0.0101642 0.0731346 0.0233452 0.0133569 0.0729152 0.0240575 
0.0157419 0.0724344 0.0242786 0.00870493 0.0770949 0.0257054 0.00899327 0.0709781 0.025739 
0.011915 0.0752939 0.0253854 0.0234142 0.0712161 0.0240201 0.0228053 0.0725627 0.0258936 
0.0212836 0.0711356 0.0232027 0.0176026 0.0738185 0.0230748 0.0219426 0.0763221 0.028717 
0.0233993 0.0774123 0.0271392 0.0229943 0.07334 0.0292638 0.0234415 0.0712874 0.0225164 
0.0202742 0.073539 0.0237109 0.0175127 0.0758222 0.0241959 0.0224317 0.0746433 0.0257776 
0.0120084 0.032505 0.0267041 0.00963853 0.0610836 0.025746 0.013287 0.0590343 0.0222103 
0.0232652 0.0305545 0.0242977 0.0230366 0.0289222 0.0259042 0.000886471 0.0614799 0.0221143 
0.0220092 0.0643338 0.0217568 
VERTICES 418 836
1 0 
1 1 
1 2 
1 3 
1 4 
1 5 
1 6 
1 7 
1 8 
1 9 
1 10 
1 11 
1 12 
1 13 
1 14 
1 15 
1 16 
1 17 
1 18 
1 19 
1 20 
1 21 
1 22 
1 23 
1 24 
1 25 
1 26 
1 27 
1 28 
1 29 
1 30 
1 31 
1 32 
1 33 
1 34 
1 35 
1 36 
1 37 
1 38 
1 39 
1 40 
1 41 
1 42 
1 43 
1 44 
1 45 
1 46 
1 47 
1 48 
1 49 
1 50 
1 51 
1 52 
1 53 
1 54 
1 55 
1 56 
1 57 
1 58 
1 59 
1 60 
1 61 
1 62 
1 63 
1 64 
1 65 
1 66 
1 67 
1 68 
1 69 
1 70 
1 71 
1 72 
1 73 
1 74 
1 75 
1 76 
1 77 
1 78 
1 79 
1 80 
1 81 
1 82 
1 83 
1 84 
1 85 
1 86 
1 87 
1 88 
1 89 
1 90 
1 91 
1 92 
1 93 
1 94 
1 95 
1 96 
1 97 
1 98 
1 99 
1 100 
1 101 
1 102 
1 103 
1 104 
1 105 
1 106 
1 107 
1 108 
1 109 
1 110 
1 111 
1 112 
1 113 
1 114 
1 115 
1 116 
1 117 
1 118 
1 119 
1 120 
1 121 
1 122 
1 123 
1 124 
1 125 
1 126 
1 127 
1 128 
1 129 
1 130 
1 131 
1 132 
1 133 
1 134 
1 135 
1 136 
1 137 
1 138 
1 139 
1 140 
1 141 
1 142 
1 143 
1 144 
1 145 
1 146 
1 147 
1 148 
1 149 
1 150 
1 151 
1 152 
1 153 
1 154 
1 155 
1 156 
1 157 
1 158 
1 159 
1 160 
1 161 
1 162 
1 163 
1 164 
1 165 
1 166 
1 167 
1 168 
1 169 
1 170 
1 171 
1 172 
1 173 
1 174 
1 175 
1 176 
1 177 
1 178 
1 179 
1 180 
1 181 
1 182 
1 183 
1 184 
1 185 
1 186 
1 187 
1 188 
1 189 
1 190 
1 191 
1 192 
1 193 
1 194 
1 195 
1 196 
1 197 
1 198 
1 199 
1 200 
1 201 
1 202 
1 203 
1 204 
1 205 
1 206 
1 207 
1 208 
1 209 
1 210 
1 211 
1 212 
1 213 
1 214 
1 215 
1 216 
1 217 
1 218 
1 219 
1 220 
1 221 
1 222 
1 223 
1 224 
1 225 
1 226 
1 227 
1 228 
1 229 
1 230 
1 231 
1 232 
1 233 
1 234 
1 235 
1 236 
1 237 
1 238 
1 239 
1 240 
1 241 
1 242 
1 243 
1 244 
1 245 
1 246 
1 247 
1 248 
1 249 
1 250 
1 251 
1 252 
1 253 
1 254 
1 255 
1 256 
1 257 
1 258 
1 259 
1 260 
1 261 
1 262 
1 263 
1 264 
1 265 
1 266 
1 267 
1 268 
1 269 
1 270 
1 271 
1 272 
1 273 
1 274 
1 275 
1 276 
1 277 
1 278 
1 279 
1 280 
1 281 
1 282 
1 283 
1 284 
1 285 
1 286 
1 287 
1 288 
1 289 
1 290 
1 291 
1 292 
1 293 
1 294 
1 295 
1 296 
1 297 
1 298 
1 299 
1 300 
1 301 
1 302 
1 303 
1 304 
1 305 
1 306 
1 307 
1 308 
1 309 
1 310 
1 311 
1 312 
1 313 
1 314 
1 315 
1 316 
1 317 
1 318 
1 319 
1 320 
1 321 
1 322 
1 323 
1 324 
1 325 
1 326 
1 327 
1 328 
1 329 
1 330 
1 331 
1 332 
1 333 
1 334 
1 335 
1 336 
1 337 
1 338 
1 339 
1 340 
1 341 
1 342 
1 343 
1 344 
1 345 
1 346 
1 347 
1 348 
1 349 
1 350 
1 351 
1 352 
1 353 
1 354 
1 355 
1 356 
1 357 
1 358 
1 359 
1 360 
1 361 
1 362 
1 363 
1 364 
1 365 
1 366 
1 367 
1 368 
1 369 
1 370 
1 371 
1 372 
1 373 
1 374 
1 375 
1 376 
1 377 
1 378 
1 379 
1 380 
1 381 
1 382 
1 383 
1 384 
1 385 
1 386 
1 387 
1 388 
1 389 
1 390 
1 391 
1 392 
1 393 
1 394 
1 395 
1 396 
1 397 
1 398 
1 399 
1 400 
1 401 
1 402 
1 403 
1 404 
1 405 
1 406 
1 407 
1 408 
1 409 
1 410 
1 411 
1 412 
1 413 
1 414 
1 415 
1 416 
1 417 

POINT_DATA 418
FIELD FieldData 7
id 1 418 int
199 324 31 51 25 161 178 32 100 
123 395 155 159 204 219 126 108 228 
274 360 64 380 97 217 275 289 307 
46 171 190 231 200 319 57 340 143 
98 154 287 110 44 120 308 113 209 
33 13 137 323 162 12 62 70 49 
78 41 71 260 153 293 42 315 337 
272 345 400 36 249 247 269 348 354 
386 405 54 152 91 261 198 374 139 
244 3 316 122 138 40 328 402 410 
242 268 73 353 369 394 37 254 165 
331 361 346 88 335 112 168 74 409 
94 264 379 129 8 147 133 306 332 
327 227 48 186 45 84 157 179 86 
299 216 356 24 81 39 104 271 313 
158 20 187 288 76 82 407 235 181 
325 387 26 257 14 134 239 163 9 
404 210 149 182 69 351 262 87 125 
79 195 72 291 170 388 290 176 241 
282 213 362 364 370 142 160 151 17 
333 16 89 156 256 390 392 115 10 
192 230 311 318 372 34 47 148 92 
185 77 106 273 281 365 15 202 136 
399 28 30 35 59 75 121 188 61 
401 66 80 90 164 237 252 320 342 
300 296 6 109 211 233 330 334 2 
5 19 223 174 175 99 55 368 208 
279 189 220 43 350 212 130 238 172 
326 124 322 397 180 278 11 145 382 
245 236 338 118 60 1 305 304 144 
221 259 265 347 366 286 343 309 403 
285 146 383 384 406 196 276 375 378 
314 367 371 357 344 218 114 222 321 
119 263 267 105 116 226 251 232 381 
205 38 7 250 301 303 359 373 193 
63 246 67 191 258 341 349 117 411 
184 56 95 107 96 103 140 270 396 
266 4 111 201 194 169 150 294 18 
131 225 255 336 197 229 53 215 284 
132 135 183 128 248 352 363 302 277 
376 173 68 240 214 339 355 358 398 
408 102 21 52 65 224 280 297 310 
312 317 377 385 58 203 295 50 22 
127 177 292 23 29 101 167 206 243 
283 298 389 393 93 234 329 141 27 
166 83 85 207 253 391 412 413 414 
415 416 417 418 
type 1 418 int
1 1 1 1 1 1 1 1 1 
1 1 1 1 1 1 1 1 1 
1 1 1 1 1 1 1 1 1 
1 1 1 1 1 1 1 1 1 
1 1 1 1 1 1 1 1 1 
1 1 1 1 1 1 1 1 1 
1 1 1 1 1 1 1 1 1 
1 1 1 1 1 1 1 1 1 
1 1 1 1 1 1 1 1 1 
1 1 1 1 1 1 1 1 1 
1 1 1 1 1 1 1 1 1 
1 1 1 1 1 1 1 1 1 
1 1 1 1 1 1 1 1 1 
1 1 1 1 1 1 1 1 1 
1 1 1 1 1 1 1 1 1 
1 1 1 1 1 1 1 1 1 
1 1 1 1 1 1 1 1 1 
1 1 1 1 1 1 1 1 1 
1 1 1 1 1 1 1 1 1 
1 1 1 1 1 1 1 1 1 
1 1 1 1 1 1 1 1 1 
1 1 1 1 1 1 1 1 1 
1 1 1 1 1 1 1 1 1 
1 1 1 1 1 1 1 1 1 
1 1 1 1 1 1 1 1 1 
1 1 1 1 1 1 1 1 1 
1 1 1 1 1 1 1 1 1 
1 1 1 1 1 1 1 1 1 
1 1 1 1 1 1 1 1 1 
1 1 1 1 1 1 1 1 1 
1 1 1 1 1 1 1 1 1 
1 1 1 1 1 1 1 1 1 
1 1 1 1 1 1 1 1 1 
1 1 1 1 1 1 1 1 1 
1 1 1 1 1 1 1 1 1 
1 1 1 1 1 1 1 1 1 
1 1 1 1 1 1 1 1 1 
1 1 1 1 1 1 1 1 1 
1 1 1 1 1 1 1 1 1 
1 1 1 1 1 1 1 1 1 
1 1 1 1 1 1 1 1 1 
1 1 1 1 1 1 1 1 1 
1 1 1 1 1 1 1 1 1 
1 1 1 1 1 1 1 1 1 
1 1 1 1 1 1 1 1 1 
1 1 1 1 1 1 1 1 1 
1 1 1 1 
i 3 418 int
0 0 0 0 0 0 0 0 0 
0 0 0 0 0 0 0 0 0 
0 0 0 0 0 0 0 0 0 
0 0 0 0 0 0 0 0 0 
0 0 0 0 0 0 0 0 0 
0 0 0 0 0 0 0 0 0 
0 0 0 0 0 0 0 0 0 
0 0 0 0 0 0 0 0 0 
0 0 0 0 0 0 0 0 0 
0 0 0 0 0 0 0 0 0 
0 0 0 0 0 0 0 0 0 
0 0 0 0 0 0 0 0 0 
0 0 0 0 0 0 0 0 0 
0 0 0 0 0 0 0 0 0 
0 0 0 0 0 0 0 0 0 
0 0 0 0 0 0 0 0 0 
0 0 0 0 0 0 0 0 0 
0 0 0 0 0 0 0 0 0 
0 0 0 0 0 0 0 0 0 
0 0 0 0 0 0 0 0 0 
0 0 0 0 0 0 0 0 0 
0 0 0 0 0 0 0 0 0 
0 0 0 0 0 0 0 0 0 
0 0 0 0 0 0 0 0 0 
0 0 0 0 0 0 0 0 0 
0 0 0 0 0 0 0 0 0 
0 0 0 0 0 0 0 0 0 
0 0 0 0 0 0 0 0 0 
0 0 0 0 0 0 0 0 0 
0 0 0 0 0 0 0 0 0 
0 0 0 0 0 0 0 0 0 
0 0 0 0 0 0 0 0 0 
0 0 0 0 0 0 0 0 0 
0 0 0 0 0 0 0 0 0 
0 0 0 0 0 0 0 0 0 
0 0 0 0 0 0 0 0 0 
0 0 0 0 0 0 0 0 0 
0 0 0 0 0 0 0 0 0 
0 0 0 0 0 0 0 0 0 
0 0 0 0 0 0 0 0 0 
0 0 0 0 0 0 0 0 0 
0 0 0 0 0 0 0 0 0 
0 0 0 0 0 0 0 0 0 
0 0 0 0 0 0 0 0 0 
0 0 0 0 0 0 0 0 0 
0 0 0 0 0 0 0 0 0 
0 0 0 0 0 0 0 0 0 
0 0 0 0 0 0 0 0 0 
0 0 0 0 0 0 0 0 0 
0 0 0 0 0 0 0 0 0 
0 0 0 0 0 0 0 0 0 
0 0 0 0 0 0 0 0 0 
0 0 0 0 0 0 0 0 0 
0 0 0 0 0 0 0 0 0 
0 0 0 0 0 0 0 0 0 
0 0 0 0 0 0 0 0 0 
0 0 0 0 0 0 0 0 0 
0 0 0 0 0 0 0 0 0 
0 0 0 0 0 0 0 0 0 
0 0 0 0 0 0 0 0 0 
0 0 0 0 0 0 0 0 0 
0 0 0 0 0 0 0 0 0 
0 0 0 0 0 0 0 0 0 
0 0 0 0 0 0 0 0 0 
0 0 0 0 0 0 0 0 0 
0 0 0 0 0 0 0 0 0 
0 0 0 0 0 0 0 0 0 
0 0 0 0 0 0 0 0 0 
0 0 0 0 0 0 0 0 0 
0 0 0 0 0 0 0 0 0 
0 0 0 0 0 0 0 0 0 
0 0 0 0 0 0 0 0 0 
0 0 0 0 0 0 0 0 0 
0 0 0 0 0 0 0 0 0 
0 0 0 0 0 0 0 0 0 
0 0 0 0 0 0 0 0 0 
0 0 0 0 0 0 0 0 0 
0 0 0 0 0 0 0 0 0 
0 0 0 0 0 0 0 0 0 
0 0 0 0 0 0 0 0 0 
0 0 0 0 0 0 0 0 0 
0 0 0 0 0 0 0 0 0 
0 0 0 0 0 0 0 0 0 
0 0 0 0 0 0 0 0 0 
0 0 0 0 0 0 0 0 0 
0 0 0 0 0 0 0 0 0 
0 0 0 0 0 0 0 0 0 
0 0 0 0 0 0 0 0 0 
0 0 0 0 0 0 0 0 0 
0 0 0 0 0 0 0 0 0 
0 0 0 0 0 0 0 0 0 
0 0 0 0 0 0 0 0 0 
0 0 0 0 0 0 0 0 0 
0 0 0 0 0 0 0 0 0 
0 0 0 0 0 0 0 0 0 
0 0 0 0 0 0 0 0 0 
0 0 0 0 0 0 0 0 0 
0 0 0 0 0 0 0 0 0 
0 0 0 0 0 0 0 0 0 
0 0 0 0 0 0 0 0 0 
0 0 0 0 0 0 0 0 0 
0 0 0 0 0 0 0 0 0 
0 0 0 0 0 0 0 0 0 
0 0 0 0 0 0 0 0 0 
0 0 0 0 0 0 0 0 0 
0 0 0 0 0 0 0 0 0 
0 0 0 0 0 0 0 0 0 
0 0 0 0 0 0 0 0 0 
0 0 0 0 0 0 0 0 0 
0 0 0 0 0 0 0 0 0 
0 0 0 0 0 0 0 0 0 
0 0 0 0 0 0 0 0 0 
0 0 0 0 0 0 0 0 0 
0 0 0 0 0 0 0 0 0 
0 0 0 0 0 0 0 0 0 
0 0 0 0 0 0 0 0 0 
0 0 0 0 0 0 0 0 0 
0 0 0 0 0 0 0 0 0 
0 0 0 0 0 0 0 0 0 
0 0 0 0 0 0 0 0 0 
0 0 0 0 0 0 0 0 0 
0 0 0 0 0 0 0 0 0 
0 0 0 0 0 0 0 0 0 
0 0 0 0 0 0 0 0 0 
0 0 0 0 0 0 0 0 0 
0 0 0 0 0 0 0 0 0 
0 0 0 0 0 0 0 0 0 
0 0 0 0 0 0 0 0 0 
0 0 0 0 0 0 0 0 0 
0 0 0 0 0 0 0 0 0 
0 0 0 0 0 0 0 0 0 
0 0 0 0 0 0 0 0 0 
0 0 0 0 0 0 0 0 0 
0 0 0 0 0 0 0 0 0 
0 0 0 0 0 0 0 0 0 
0 0 0 0 0 0 0 0 0 
0 0 0 0 0 0 0 0 0 
0 0 0 0 0 0 0 0 0 
0 0 0 0 0 0 0 0 0 
0 0 0 
v 3 418 double
2.63375 0.140064 0.860243 -3.16405 2.62481 1.00469 10.7898 -2.20677 3.5736 
0 0 -0.0732722 3.7493 2.12503 0.160518 10.5022 0.0520928 -0.187657 
10.734 0.322877 -4.43415e-09 -1.61854 1.52424 -0.057057 1.27403 2.84816 0.352492 
11.4209 -3.72147 2.28957 0 0 -0.085813 0 0 -1.18355 
0 0 -1.16908 1.26028 1.30688 0.397123 -1.61405 -5.13494 -0.869238 
0 0 -1.33144 -0.124144 0.968458 0.282847 0 0 -0.845597 
0 0 -0.651359 0 0 -0.282258 2.65703 -0.711452 0.916885 
0 0 -0.196666 0 0 0.728273 1.18679 0.0933891 -1.68052 
0 0 -0.650624 0 0 -0.600838 0 0 -0.518189 
-0.0409405 -2.70187 0.0180319 -0.920681 -0.676056 -0.0938367 0 0 -0.0591527 
7.40273 14.288 -3.88936 0.465474 -0.8216 0.12262 0 0 -0.47012 
1.72722 1.67081 0.158926 2.19199 16.2042 6.63398 0 0 -1.23334 
-1.80118 -2.77965 -0.125366 -0.161124 2.23061 0.161251 0.679697 5.56386 -9.43664 
0.704648 2.53371 -8.18873 2.13121 -3.07337 0.462915 1.2938 1.99972 0.983097 
1.74301 -1.04934 -1.59157 0 0 -1.38564 0 0 -0.927266 
0.70981 -4.87577 -3.49019 0 0 0.136921 1.38332 -3.32135 0.370219 
-3.81918 -2.17021 -0.144076 -0.31501 -0.578589 -12.4077 -4.592 -3.11319 0.176598 
1.31265 -1.25967 -0.0314374 -5.25265 -2.5462 0.0760812 -3.05688 2.84704 -0.395612 
4.95211 -12.3482 0.0160468 14.8964 -1.75379 1.27886 -3.73885 -9.70144 -2.8102 
3.26627 -12.1319 0.268722 -3.32424 -12.3481 1.3804 9.86196 -15.0867 -10.8923 
1.43544 2.84595 -2.64649 3.2399 -0.0505028 -4.24049 0 0 -0.38747 
-0.0414385 -3.7707 0.938222 0.0187106 4.83121 -13.9588 -0.255775 5.88893 -6.17721 
-0.382048 -0.718622 0.156895 -4.03477 3.73711 -4.41817 0 0 -2.10692e-12 
0.240635 0.00283224 -1.56706e-05 0 0 -0.337194 0 0 -0.304331 
0 0 -0.142956 0 0 -0.0441205 -2.57722 -0.220816 0.11701 
-2.70728 -1.04215 -0.89678 0 0 -1.45725 0 0 -0.721256 
-2.28448 0.517936 -0.0906092 0 0 -0.218493 0.0182727 -12.1045 -11.3124 
-2.72135 14.3496 0.488282 0 0 1.50429e-11 0 0 -0.478213 
0.213182 0.0322206 -2.03302 0 0 -1.27454 0 0 0.472531 
0 0 -0.445595 0 0 -0.0541757 0 0 -0.0355367 
0 0 -0.80415 0 0 -0.672696 -0.540603 2.01718 -9.87233 
0 0 -0.315612 -6.61066 -20.9068 6.44661 0 0 -0.0863035 
-8.43881 0.397511 2.39761 0 0 -0.769079 -6.37957 1.0094 -0.315289 
0 0 -0.41641 -14.8188 4.43868 0.943067 -12.4915 6.31082 -0.0217797 
0 0 2.87921e-11 0 0 -0.391885 -0.192234 -1.25741 6.50084e-09 
-1.41269 1.98273 0.151275 0.105969 -1.21276 0.929871 0 0 92.0755 
0.913079 0.182315 -0.218337 0 0 -0.694523 0 0 -0.200345 
0.178592 18.2521 -16.4277 5.03797 -0.931832 0.0660412 0 0 -1.22672 
-0.527167 -1.71884 -1.25851 0.930178 -2.17916 -1.68035 -16.6338 4.06814 0.723658 
-0.156101 1.54058 1.94647 -1.16484 -9.53203 0.00947547 1.23097 2.90817 0.318906 
11.0856 17.3147 0.953299 0 0 2.06258e-11 0.826334 3.51163 0.187414 
1.50291 3.96923 -5.87087 0.264856 6.94571 -4.61908 1.04522 -1.1257 -0.334049 
0 0 -0.559636 0.205853 0.584258 0.491854 -0.0705914 -0.330807 0.267223 
-4.03161 3.55199 0.0558632 0 0 0.0538026 5.07688 4.28303 -0.0294422 
0.137488 -0.105952 -1.1592 -0.137488 0.105952 -0.927827 0 0 -0.487287 
1.88646 0.276134 0.554197 0.378938 10.3535 -0.264317 -3.98552 11.0468 0.795419 
2.78569 1.34111 0.58825 -2.32344 -0.143748 -2.42964 0.453825 4.69735 -2.11571 
5.40386 7.54866 45.4301 0.295865 2.00365 0.137878 0 0 0.986731 
0 0 -0.454424 0 0 -0.132165 -0.473041 0.632407 -1.55899 
-0.187124 5.72456 -10.4394 0 0 -0.0321702 0 0 -1.2922 
0 0 -0.813224 1.75125 -4.77494 -0.161972 2.2345 2.78522 0.202525 
0 0 -0.0448562 -2.27862 1.70826 -0.0109983 0 0 -1.21789 
0 0 -1.06657 -4.46709 -0.253669 1.24953 0 0 -0.323215 
7.73063 -9.32715 2.11663 10.3163 -1.38052 2.93609 0 0 -1.33193 
-0.233039 0.635402 0.478038 -0.384117 3.40261 -0.145679 0.511192 2.9859 0.666615 
0.241757 0.357003 -3.48612 5.93501 -6.49385 0.937755 -5.83105 -3.90713 10.4069 
10.0775 7.98526 -0.313142 0 0 -1.083 0 0 -0.809055 
0 0 -0.633701 0.38064 -0.201744 -1.39573 0 0 -0.269996 
0 0 -0.253809 0 0 -0.235906 14.3314 -5.52911 0.0665389 
17.6028 1.50766 -2.38435 -18.4583 -10.2031 -0.80369 -2.39639 3.04475 -1.75217 
-0.478605 4.19334 -29.3047 6.63545 0.781534 3.41811 0 0 -1.46068 
1.07387 2.46968 1.59713 0 0 -0.747252 0 0 -0.118676 
6.5528 3.32328 35.7527 13.3602 9.40266 4.77078 2.18417 0.632482 -1.10772 
5.4185 3.91843 -5.03745 0 0 -0.837749 0 0 -0.494645 
0 0 -0.472572 0 0 -0.230756 -6.07236 -14.5323 -1.43149 
4.67801 -11.5936 -1.94245 -1.17144 -30.7324 -2.43845 0.412956 -10.9409 14.4964 
1.96403 -1.09352 -2.43714 8.00249 5.63454 5.67218 4.96005 3.69711 -3.32213 
4.04857 -3.42948 -1.43398 2.90122 3.57632 10.3279 0 0 -0.24964 
-4.23671 -25.0559 -4.89417 -1.0444 -32.123 -0.436014 1.78904 -29.5396 -0.501759 
-20.6339 13.9646 32.5201 0.644029 -12.3521 11.1574 5.58576 0.461367 -3.25641 
3.08771 -0.00211208 -2.09189 4.61913 -1.67034 -2.52226 0.340879 -4.52622 -3.32695 
0.668266 2.48129 -4.31416 0.543812 -0.0233568 -1.01042 6.91937 -3.90466 -2.8063 
0 0 -0.0617785 14.2535 -4.96833 -7.12799 0.779825 -2.19586 -3.71214 
1.69278 -1.82699 -2.52153 0.554353 0.0560228 -1.18507 -0.991623 -4.13157 0.519183 
0 0 -0.772758 -3.59132 -10.8933 5.01343 0.946374 -1.08974 -1.30275 
-21.594 -17.9292 -3.07817 3.22799 -3.46663 0.70331 -2.9824 3.50784 -15.8948 
-1.8198 -5.2597 0.332841 1.17688 -6.30876 1.02621 0 0 -0.827939 
-0.100403 -0.338651 -3.64183 1.96346 -6.80529 -0.282616 6.32046 -9.93342 10.5882 
-1.27639 -4.82935 0.528114 1.37063 1.53419 2.54793 0.0223444 24.8573 -3.57251 
0.940094 -2.21881 -12.7934 0.048034 19.5699 -0.515452 3.47472 24.8156 -1.15906 
20.8251 6.54951 -5.49826 -20.7433 -14.6553 -6.83053 2.2955 -5.25653 1.97593 
11.7613 0.669464 -6.15852 -1.5764 -3.91909 1.62275 12.2838 -4.24639 0.0643006 
-1.51086 -5.83664 -4.22902 15.8858 -3.30826 -10.0254 -0.268951 -3.67375 -6.37347 
17.0066 -9.7774 -5.38883 -0.573316 -1.56878 -1.72837 -5.51525 -9.34178 -3.94436 
0 0 -0.450254 -4.18611 -14.1898 -1.47614 47.9286 -74.3021 -3.24322 
-0.417907 -0.91744 -0.655046 4.5285 -8.04608 -4.83287 -1.32056 4.19658 1.57292 
-16.3109 -6.91902 4.27263 0.241153 -13.097 1.80544 0 0 -0.172631 
-14.6724 -7.97599 -1.3869 1.03269 -7.82698 -2 -3.47876 -8.55635 -2.87548 
-1.87402 -7.282 1.25947 -1.58273 -2.95255 -3.05088 -3.90126 -5.44446 -4.82876 
-3.48612 9.64759 -6.56701 -0.410514 -0.214341 -3.97978 -1.02321 -0.592583 0.379882 
-1.78978 -0.678926 -1.4004 0.412402 -9.37108 -3.02008 0 0 -0.688637 
0 0 -0.346759 0 0 -0.246452 4.62796 -37.2318 -6.41374 
9.79289 -32.7607 -10.6952 0 0 -15.6073 0 0 -0.0480445 
-2.26125 -5.19859 -11.9968 -2.69859 -17.3347 -7.92582 0 0 -0.163557 
0 0 -0.152766 0.331895 -2.84403 -0.540264 0.584613 6.32248 -5.16636 
0 0 -0.645719 -9.1232 -3.38054 12.8627 0 0 -0.207947 
-11.3048 14.2087 6.05339 0 0 -0.245471 -5.25759 -1.28949 0.764716 
-22.4724 -0.857633 -6.5131 -5.63741 2.71467 19.1759 0.427113 6.21877 0.0160939 
-0.164731 3.54822 -0.442836 -0.673003 6.13402 -3.32557 -1.37899 5.84151 -0.737281 
6.62935 24.1843 -2.14597 -8.92894 21.8178 -8.26719 -10.4277 16.9374 2.44515 
-0.555908 4.49389 0.690863 -3.37156 1.14485 4.33588 0 0 -0.857369 
-8.63367 -1.99497 -7.44718 -3.92068 -0.451192 -0.815264 0.492843 0.262985 -0.519282 
-2.89241 4.31963 -0.97221 19.27 9.43393 -4.9611 5.05952 1.01083 -8.42071 
8.05364 12.2342 -1.71329 0.657542 -1.31016 0.0524135 -1.46192 -0.600761 2.00317 
0 0 -0.288389 0 0 -0.220455 2.53412 -5.6849 4.62062 
-0.713464 13.6014 -0.930716 -4.52527 13.0658 0.00935631 -0.41613 8.62941 -11.4852 
0.794618 8.249 -3.94699 -2.88574 2.29514 -0.722598 0 0 -0.375208 
0 0 -0.334742 2.87918 15.0298 -6.19444 0 0 -0.0296507 
-10.1522 20.5247 7.43129 0.594968 12.5659 -7.78875 0.904271 -16.7653 -1.87299 
-0.000996037 1.33441 -0.813533 0 0 -1.44131 1.2397 0.110602 -1.89329 
0 0 -1.26865 0.752391 -7.79821 -0.906184 0 0 -21.4787 
14.5933 14.8055 0.985801 -2.66011 7.77117 8.74015 19.5703 7.80758 3.68074 
-0.21989 -10.684 -1.10149 -30.3092 0.967555 -0.530879 19.3231 5.24919 3.8361 
-0.0417116 -0.196128 1.38284 8.97349 13.6114 -2.5962 0 0 -1.74689 
0 0 -1.31353 3.63491 0.338372 -1.9654 0.113877 0.144769 -0.709725 
-9.39691 9.40269 1.50569 -11.553 17.113 -0.514395 -14.4605 22.7667 3.43486 
3.27718 7.43053 5.05804 1.69598 15.7079 -8.08272 1.1897 19.9128 -0.39248 
0 0 -1.30814 0 0 -1.28729 0 0 -1.06485 
4.60591 -7.22859 -9.89719 8.66647 14.5 -1.36514 0 0 -0.317819 
-0.959912 3.30248 0.211613 7.9061 -4.5034 -3.87042 -2.98661 12.5918 1.79908 
3.40609 7.01062 0.96362 2.27101 11.1692 0.200745 3.19605 8.60998 4.95551 
7.30605 8.38591 6.15034 0 0 -0.911079 0 0 -0.381584 
0 0 -0.30335 0 0 -0.291087 0 0 -0.074041 
10.973 9.647 -8.90422 -2.99844 7.60045 -9.76081 -0.12898 15.3339 -0.192815 
6.76596 -2.1259 -9.69781 0 0 -1.57252 2.09251 -6.59842 -0.270048 
0 0 -0.635418 0 0 -0.560617 -0.869979 -0.47153 -1.58538 
0 0 -0.493173 0 0 -0.47576 0 0 -0.209419 
0 0 -0.150068 7.30634 22.3077 11.5807 0.147546 0.0425684 9.0821 
0.554055 1.21812 9.95821 1.38419 -0.997698 -2.06514 -3.23567 0.842435 1.96928 
0 0 -1.32163 0 0 -1.07981 1.47165 -1.04674 1.36188 
2.49658 -0.546963 -0.83685 0 0 -1.72065 0 0 -1.43199 
0 0 -1.15142 0 0 -0.939773 1.15425 0.918779 0.78865 
0 0 -0.623891 0 0 -0.560372 0 0 -0.119412 
0 0 -0.0894917 1.91282 4.5158 -9.68111 1.38233 8.87238 -5.00144 