ITEM: TIMESTEP
750000
ITEM: NUMBER OF ATOMS
3445
ITEM: BOX BOUNDS mm mm mm
-2.4e-06 0.0240024
-7.8e-06 0.0780078
-3e-06 0.030003
ITEM: ATOMS v_x1 v_y1 v_z1 v_rad1 
3.36818e-05 2.19781e-05 0.000214999 1.5e-05 
4.99915e-06 1.49964e-05 0.000204999 5e-06 
5.50049e-05 4.09421e-05 0.0002075 7.5e-06 
4.73641e-05 5.00104e-06 0.000205 5e-06 
4.37761e-05 3.60529e-05 0.000205 5e-06 
2.73625e-05 5.00043e-06 0.000205 5e-06 
4.66331e-05 5.94678e-05 0.000205 5e-06 
4.99885e-06 4.99822e-06 0.000204999 5e-06 
9.99831e-06 2.82236e-05 0.000209999 1e-05 
7.03946e-05 5.40019e-05 0.000205 5e-06 
3.73634e-05 5.00897e-06 0.000205 5e-06 
5.00886e-06 5.33258e-05 0.000205 5e-06 
6.35699e-05 3.2064e-05 0.000214391 5e-06 
4.94463e-05 1.48051e-05 0.000204999 5e-06 
1.12103e-05 6.2123e-05 0.000204999 5e-06 
5.95006e-05 1.47662e-05 0.000204999 5e-06 
4.99991e-06 4.14528e-05 0.000205 5e-06 
5.45184e-05 2.59521e-05 0.0002075 7.5e-06 
6.10125e-05 4.9992e-06 0.000216554 5e-06 
5.7364e-05 4.99873e-06 0.000205 5e-06 
7.29215e-06 4.9998e-06 0.000214732 5e-06 
6.91142e-05 2.24962e-05 0.0002075 7.5e-06 
1.61789e-05 9.99503e-06 0.000207499 7.5e-06 
6.93385e-05 7.49858e-06 0.000207571 7.5e-06 
3.25493e-05 3.92773e-05 0.000205 5e-06 
2.60097e-05 4.90814e-05 0.000205 5e-06 
2.23725e-05 3.50989e-05 0.000205 5e-06 
1.80252e-05 7.49961e-06 0.000222174 7.5e-06 
4.99993e-06 1.47298e-05 0.000214995 5e-06 
4.99946e-06 6.27576e-05 0.000212811 5e-06 
1.75012e-05 4.38317e-05 0.000212503 7.5e-06 
6.56557e-05 3.47935e-05 0.000205 5e-06 
5.29653e-05 9.54807e-06 0.000212742 5e-06 
3.09178e-05 4.52721e-05 0.000212835 5e-06 
4.42359e-05 4.99868e-06 0.000214498 5e-06 
4.9997e-06 4.99981e-06 0.000224466 5e-06 
7.54858e-05 3.2955e-05 0.000205 5e-06 
7.2163e-05 4.23861e-05 0.000204999 5e-06 
5.82497e-05 5.55847e-05 0.000207499 7.5e-06 
1.67436e-05 5.37949e-05 0.000204997 5e-06 
1.12731e-05 5.49853e-05 0.000213281 5e-06 
5.1117e-05 5.05066e-06 0.000221753 5e-06 
4.18495e-05 4.81476e-05 0.000207499 7.5e-06 
6.74287e-05 4.58731e-05 0.000218796 1e-05 
6.05748e-05 1.66882e-05 0.000214753 5e-06 
6.98178e-05 1.21315e-05 0.000221829 7.5e-06 
1.88881e-05 3.42839e-05 0.000220451 5e-06 
5.21473e-05 1.62508e-05 0.000220118 5e-06 
4.99977e-06 2.14409e-05 0.000222409 5e-06 
5.14335e-05 6.32362e-05 0.000214655 5e-06 
7.36085e-05 3.26802e-05 0.000214818 5e-06 
7.73902e-05 2.18169e-05 0.000216843 5e-06 
3.99307e-05 4.99985e-06 0.000223524 5e-06 
7.73793e-05 6.32092e-05 0.000219448 1e-05 
7.33678e-05 6.35497e-05 0.000204999 5e-06 
5.50667e-05 3.01084e-05 0.000219276 5e-06 
4.85485e-05 6.92828e-05 0.000205 5e-06 
4.99962e-06 4.71993e-05 0.000213183 5e-06 
6.24146e-05 6.00053e-05 0.000218428 5e-06 
2.95182e-05 6.74583e-05 0.000217499 1.75e-05 
7.49965e-06 3.9764e-05 0.000222915 7.5e-06 
6.58194e-05 2.37622e-05 0.000219491 5e-06 
1.48333e-05 1.95488e-05 0.00022124 5e-06 
7.95544e-05 1.4224e-05 0.000204999 5e-06 
2.64845e-05 4.36382e-05 0.000224512 7.5e-06 
4.99991e-06 7.03945e-05 0.000219266 5e-06 
8.69311e-05 1.03302e-05 0.000218569 1e-05 
8.3431e-05 6.31432e-05 0.000205 5e-06 
8.40039e-05 3.81924e-05 0.000205 5e-06 
8.14294e-05 4.97384e-05 0.000209037 7.5e-06 
9.46006e-05 5.23456e-05 0.000213317 5e-06 
9.1054e-05 5.66134e-05 0.000204999 5e-06 
9.19291e-05 4.42905e-05 0.000204999 5e-06 
0.000115692 4.25112e-05 0.000204998 5e-06 
0.000101318 2.80036e-05 0.000205 5e-06 
0.000138203 2.33674e-05 0.000207499 7.5e-06 
0.000101029 1.78883e-05 0.000204999 5e-06 
0.000103411 4.99922e-06 0.000204999 5e-06 
0.000125874 5.00028e-06 0.000204999 5e-06 
0.000109652 1.28261e-05 0.000205 5e-06 
8.34105e-05 4.99879e-06 0.000204999 5e-06 
0.000109883 5.11738e-05 0.000204999 5e-06 
0.000127436 3.87428e-05 0.000204999 5e-06 
8.49703e-05 2.52067e-05 0.000207499 7.5e-06 
0.000110365 6.23308e-05 0.000205 5e-06 
0.00010102 5.5805e-05 0.000205 5e-06 
0.000126505 5.60376e-05 0.000215 1.5e-05 
0.000104247 1.07281e-05 0.000216076 7.5e-06 
9.15036e-05 1.48444e-05 0.000205 5e-06 
9.32031e-05 3.42724e-05 0.000204999 5e-06 
0.000143896 5.59397e-05 0.000205 5e-06 
0.000149465 4.11138e-05 0.000212498 1.25e-05 
9.34107e-05 5.00002e-06 0.000205 5e-06 
0.000117113 2.67664e-05 0.000212499 1.25e-05 
0.000137864 7.50006e-06 0.0002075 7.5e-06 
0.000103608 4.0685e-05 0.000207615 7.5e-06 
0.000115874 4.99853e-06 0.000204998 5e-06 
0.00012763 1.48566e-05 0.000205 5e-06 
0.000157707 1.4999e-05 0.000214999 1.5e-05 
0.000126266 4.99877e-06 0.000214991 5e-06 
0.000104578 5.16911e-05 0.00021346 5e-06 
0.000149166 6.44576e-05 0.000204999 5e-06 
0.000133832 1.55328e-05 0.000222523 1e-05 
0.000104922 5.72518e-05 0.000224649 7.5e-06 
0.000117318 9.32464e-06 0.000213895 5e-06 
0.000100235 2.23649e-05 0.000213904 5e-06 
0.000159401 5.77338e-05 0.000207499 7.5e-06 
9.11526e-05 5.79823e-05 0.000222267 5e-06 
0.000110325 4.45343e-05 0.000217428 5e-06 
0.000113239 7.0294e-05 0.000219551 5e-06 
0.000148324 6.11423e-05 0.000217021 7.5e-06 
0.000117218 4.04482e-05 0.00022341 5e-06 
0.000114536 1.26114e-05 0.000222918 5e-06 
0.000133426 3.41751e-05 0.000211576 5e-06 
0.000159298 3.26596e-05 0.000224249 5e-06 
0.000105894 2.01133e-05 0.000224166 5e-06 
0.000121594 5.00031e-06 0.000223832 5e-06 
0.000143093 2.72387e-05 0.000221048 5e-06 
0.000160157 5.3267e-05 0.000219149 5e-06 
0.000164321 4.65199e-05 0.000204998 5e-06 
0.000220897 7.49837e-06 0.000207499 7.5e-06 
0.000235 5.27684e-05 0.000204999 5e-06 
0.000203875 1.06938e-05 0.000209999 1e-05 
0.000232502 1.69984e-05 0.000207499 7.5e-06 
0.000206737 2.77753e-05 0.000207499 7.5e-06 
0.000205103 4.90616e-05 0.000204998 5e-06 
0.000187189 1.62115e-05 0.000207499 7.5e-06 
0.000215962 1.88103e-05 0.000205 5e-06 
0.000171885 5.02776e-06 0.000205 5e-06 
0.000234999 5.00813e-06 0.000205 5e-06 
0.000208931 3.98235e-05 0.000205 5e-06 
0.000182236 5.00367e-06 0.000205 5e-06 
0.000216413 2.17422e-05 0.000217243 7.5e-06 
0.000211199 5.96825e-05 0.0002075 7.5e-06 
0.000199062 5.80461e-05 0.000205 5e-06 
0.000223023 4.17587e-05 0.000205 5e-06 
0.000219106 2.83057e-05 0.000205 5e-06 
0.000235001 4.27706e-05 0.000204998 5e-06 
0.000171639 5.85373e-05 0.000205 5e-06 
0.000232501 6.47563e-05 0.000207498 7.5e-06 
0.000210972 4.45606e-05 0.000213566 5e-06 
0.000215016 4.77577e-05 0.000204998 5e-06 
0.000202681 6.22833e-05 0.000216271 5e-06 
0.000224321 5.1848e-05 0.000216025 1e-05 
0.000169345 2.78506e-05 0.000205 5e-06 
0.000229864 3.26697e-05 0.000214822 1e-05 
0.000220578 6.75576e-05 0.000205 5e-06 
0.000235 4.99981e-06 0.000214999 5e-06 
0.000185066 4.21052e-05 0.000222499 2.25e-05 
0.000216167 6.46479e-05 0.00021784 5e-06 
0.000190168 4.99865e-06 0.00021215 5e-06 
0.000178842 7.49978e-06 0.000216806 7.5e-06 
0.000215616 3.57442e-05 0.000211236 5e-06 
0.000209631 5.37662e-05 0.0002184 5e-06 
0.000191711 1.28511e-05 0.000222393 7.5e-06 
0.000185001 6.60667e-05 0.000205 5e-06 
0.000207949 6.99129e-05 0.000220016 5e-06 
0.000198783 7.02903e-05 0.000207499 7.5e-06 
0.000204095 2.25282e-05 0.000219211 5e-06 
0.000235 6.18294e-05 0.00021939 5e-06 
0.000216794 7.49858e-06 0.000221926 7.5e-06 
0.000226498 1.44138e-05 0.000218153 5e-06 
0.000201357 4.99986e-06 0.000223646 5e-06 
0.000235001 1.94456e-05 0.000219693 5e-06 
7.49892e-06 7.37933e-05 0.0002075 7.5e-06 
6.23465e-05 7.24118e-05 0.000209998 1e-05 
1.36432e-05 8.43861e-05 0.000204999 5e-06 
1.85129e-05 0.000100588 0.000205 5e-06 
2.46077e-05 8.98404e-05 0.000207499 7.5e-06 
7.11565e-05 0.000118172 0.000205 5e-06 
3.58834e-05 8.50584e-05 0.000205 5e-06 
2.72986e-05 0.000115372 0.000205 5e-06 
4.59771e-05 0.000104742 0.0002075 7.5e-06 
4.99951e-06 0.000107081 0.000205 5e-06 
5.17026e-05 9.30616e-05 0.000204999 5e-06 
1.77772e-05 0.000110645 0.000204999 5e-06 
3.92233e-05 0.000118163 0.000207499 7.5e-06 
5.95881e-05 9.99698e-05 0.000211806 7.5e-06 
5.13507e-05 0.000116622 0.000210103 5e-06 
2.96954e-05 0.000130773 0.000205 5e-06 
5.05891e-06 0.000127068 0.000205 5e-06 
3.88551e-05 0.00013479 0.000205 5e-06 
6.11936e-05 0.000119189 0.000204999 5e-06 
5.69788e-05 0.000110122 0.000204999 5e-06 
4.93883e-05 0.000124995 0.000205 5e-06 
3.76036e-05 0.000129179 0.000213181 5e-06 
7.13837e-05 0.000131308 0.000204999 5e-06 
6.01297e-05 0.000129131 0.000204999 5e-06 
1.76312e-05 0.000122891 0.000207499 7.5e-06 
5.3823e-06 0.000117073 0.000205 5e-06 
5.89423e-05 8.6159e-05 0.000204999 5e-06 
4.17051e-05 9.32639e-05 0.000204999 5e-06 
7.4992e-06 9.49798e-05 0.000207499 7.5e-06 
1.66921e-05 9.45429e-05 0.000215957 5e-06 
2.9161e-05 0.000123879 0.000212224 5e-06 
4.99992e-06 8.43867e-05 0.000213646 5e-06 
4.99992e-06 0.000133107 0.00021297 5e-06 
7.89246e-05 7.74267e-05 0.000207499 7.5e-06 
3.06601e-05 0.000103595 0.000207499 7.5e-06 
7.26231e-05 0.000106013 0.000207499 7.5e-06 
4.9999e-06 0.000112295 0.000213776 5e-06 
4.76085e-05 8.15194e-05 0.0002075 7.5e-06 
6.42014e-05 0.000138264 0.000205 5e-06 
3.32071e-05 0.000117061 0.0002184 5e-06 
5.08746e-05 0.000137151 0.000207499 7.5e-06 
3.66679e-05 9.13828e-05 0.000216282 7.5e-06 
6.91624e-05 8.8424e-05 0.00021183 7.5e-06 
2.19656e-05 0.000111864 0.000216712 7.5e-06 
1.22627e-05 0.00010573 0.000211738 5e-06 
5.11561e-05 0.000105979 0.000218808 5e-06 
1.53097e-05 8.47016e-05 0.000214852 5e-06 
9.99892e-06 0.000122834 0.000223245 1e-05 
2.90787e-05 0.000132148 0.000217845 5e-06 
4.99997e-06 0.000139147 0.000205 5e-06 
2.48601e-05 0.000123172 0.000221223 5e-06 
3.81983e-05 0.000105757 0.000220284 7.5e-06 
7.61485e-05 9.84258e-05 0.000220555 7.5e-06 
2.49639e-05 9.97935e-05 0.000217954 5e-06 
1.91067e-05 0.000140147 0.000209999 1e-05 
7.16126e-06 0.000140744 0.000219052 5e-06 
0.000141991 7.14209e-05 0.000205 5e-06 
8.33723e-05 0.000117239 0.000207498 7.5e-06 
0.000153291 7.36418e-05 0.000205 5e-06 
8.35837e-05 0.000132376 0.000207499 7.5e-06 
0.000140448 8.13001e-05 0.000204997 5e-06 
9.93529e-05 0.000104571 0.000204999 5e-06 
0.000127007 8.10837e-05 0.000204999 5e-06 
0.000132044 7.24469e-05 0.000204999 5e-06 
9.72472e-05 7.11596e-05 0.000212499 1.25e-05 
0.000116298 7.46327e-05 0.000207499 7.5e-06 
0.000118129 8.95196e-05 0.000207499 7.5e-06 
0.000107489 8.32813e-05 0.000205 5e-06 
0.000111495 0.000102971 0.000207499 7.5e-06 
0.000116088 0.00011725 0.0002075 7.5e-06 
9.50668e-05 0.000113605 0.000204999 5e-06 
8.70621e-05 0.000105562 0.000204998 5e-06 
0.000132304 8.95649e-05 0.000205 5e-06 
0.000103888 0.000118313 0.000204999 5e-06 
9.60482e-05 0.000133313 0.000204999 5e-06 
9.39302e-05 0.00012354 0.000205 5e-06 
0.000107966 0.000129859 0.000207504 7.5e-06 
9.0954e-05 8.56631e-05 0.000204999 5e-06 
0.000122948 0.000130588 0.0002075 7.5e-06 
0.000123227 0.000107294 0.000205 5e-06 
0.000138214 0.000106567 0.000209999 1e-05 
8.2267e-05 9.42949e-05 0.000207499 7.5e-06 
0.00011708 0.000109067 0.000220031 7.5e-06 
0.000128319 0.000116668 0.000204998 5e-06 
0.000133846 0.000125001 0.000204999 5e-06 
9.30879e-05 0.000107096 0.000212828 5e-06 
8.93208e-05 0.000124725 0.000215548 5e-06 
8.31859e-05 0.000106658 0.000214151 5e-06 
0.000126953 9.80125e-05 0.000204999 5e-06 
0.000127552 0.000119825 0.000217068 7.5e-06 
0.000149532 9.70734e-05 0.0002126 5e-06 
0.000112035 8.27341e-05 0.000219407 7.5e-06 
9.8904e-05 9.34515e-05 0.000215054 1e-05 
0.00014174 9.28721e-05 0.000204999 5e-06 
0.000151801 8.58898e-05 0.0002075 7.5e-06 
0.000101627 0.000117273 0.00021979 1e-05 
0.000155767 0.000110848 0.000205 5e-06 
0.000153439 0.000106228 0.000213558 5e-06 
0.000133819 0.00013623 0.000204999 5e-06 
0.000128995 0.000105728 0.000221801 5e-06 
0.000153027 0.00013066 0.000219999 2e-05 
0.000122194 9.96156e-05 0.000213647 5e-06 
8.63548e-05 8.47204e-05 0.000214415 5e-06 
0.000156454 9.17736e-05 0.000217499 5e-06 
0.000147673 0.000103177 0.000221136 5e-06 
0.000115195 0.00013567 0.000215885 5e-06 
0.000128105 0.000132203 0.000218771 5e-06 
0.000113558 9.56264e-05 0.000217401 5e-06 
9.71062e-05 0.000139253 0.000221425 1.25e-05 
0.000135852 0.00011282 0.000223431 5e-06 
0.000102879 0.000140997 0.000204999 5e-06 
0.000130573 0.000140345 0.000213516 5e-06 
0.000108288 0.000101081 0.000223927 5e-06 
8.97175e-05 0.000104841 0.000224652 7.5e-06 
0.000112328 0.000141545 0.000208317 5e-06 
0.00016092 9.77995e-05 0.0002075 7.5e-06 
0.000163066 0.000108858 0.000212917 5e-06 
0.000171264 0.000122456 0.000204999 5e-06 
0.000235 7.67453e-05 0.000204999 5e-06 
0.000170474 7.58252e-05 0.000214999 1.5e-05 
0.000226266 7.19022e-05 0.000219116 7.5e-06 
0.000235 9.67441e-05 0.000205 5e-06 
0.000213326 7.96978e-05 0.000209999 1e-05 
0.000181203 0.000129611 0.000207499 7.5e-06 
0.000187823 7.62072e-05 0.000205 5e-06 
0.000201525 8.80101e-05 0.000214083 5e-06 
0.000187969 9.29674e-05 0.000209999 1e-05 
0.000165017 0.000114647 0.000205 5e-06 
0.000173828 9.28174e-05 0.000204999 5e-06 
0.000230001 0.000108484 0.000212884 1e-05 
0.000204538 9.10462e-05 0.000205 5e-06 
0.000174044 0.000105062 0.000207499 7.5e-06 
0.000179083 0.000116224 0.000204999 5e-06 
0.000203068 0.00012933 0.000205 5e-06 
0.000213429 0.000110096 0.000207499 7.5e-06 
0.000235 0.000120224 0.000204999 5e-06 
0.000235 8.67445e-05 0.000204999 5e-06 
0.000198237 8.26875e-05 0.000205 5e-06 
0.000221727 0.000122933 0.000207499 7.5e-06 
0.000199786 0.000100732 0.000204997 5e-06 
0.000225157 0.000137534 0.000207499 7.5e-06 
0.000209542 0.00012171 0.000205 5e-06 
0.000234999 0.000130229 0.000205011 5e-06 
0.000214016 0.000132447 0.000205 5e-06 
0.000218855 9.61119e-05 0.0002075 7.5e-06 
0.00017212 0.000116229 0.000212776 5e-06 
0.000212095 0.000123625 0.000218976 7.5e-06 
0.000234265 0.000132706 0.000214675 5e-06 
0.000235001 0.000122734 0.000214678 5e-06 
0.000193304 0.000131491 0.000204998 5e-06 
0.000194885 0.000115762 0.0002125 1.25e-05 
0.000230562 9.12363e-05 0.000215785 7.5e-06 
0.000217338 0.000104087 0.000219615 5e-06 
0.000234999 7.96099e-05 0.00021458 5e-06 
0.000202348 0.000131456 0.000214745 5e-06 
0.000206544 9.93809e-05 0.000215422 7.5e-06 
0.00019396 7.36141e-05 0.000223988 1e-05 
0.000179147 0.000121877 0.000217101 5e-06 
0.000184236 0.000134429 0.000218627 5e-06 
0.000192773 0.000136279 0.00021376 5e-06 
0.000190753 0.000141159 0.000204999 5e-06 
0.000195301 0.000100359 0.000220797 5e-06 
0.000206291 0.000138796 0.000205 5e-06 
0.000171592 0.000138094 0.000204999 5e-06 
0.000176493 0.00013901 0.00021426 5e-06 
0.000210235 0.000111169 0.000219537 5e-06 
0.000226298 0.000122415 0.000223644 7.5e-06 
0.000195197 0.000131373 0.000224997 7.5e-06 
0.000230485 0.000136189 0.000223254 5e-06 
3.59691e-05 0.000144365 0.000205 5e-06 
4.52716e-05 0.000148061 0.000205 5e-06 
2.8355e-05 0.000150847 0.000205 5e-06 
2.27546e-05 0.000161063 0.000205 5e-06 
6.08904e-05 0.000153724 0.000212499 1.25e-05 
1.5784e-05 0.000153893 0.000205 5e-06 
5.40627e-06 0.000149139 0.000205 5e-06 
5.00133e-06 0.00015917 0.000205 5e-06 
4.51342e-05 0.000171299 0.000204999 5e-06 
2.83068e-05 0.000172797 0.000204999 5e-06 
1.24984e-05 0.000173098 0.000212498 1.25e-05 
6.53342e-05 0.000169408 0.000205 5e-06 
5.32392e-05 0.000180481 0.000207499 7.5e-06 
5.00008e-06 0.00018702 0.000205 5e-06 
3.49185e-05 0.000162488 0.000207499 7.5e-06 
5.48571e-05 0.000168339 0.000205 5e-06 
4.35169e-05 0.000155608 0.000213411 5e-06 
4.71249e-05 0.0001615 0.000204999 5e-06 
2.53515e-05 0.000182349 0.000204999 5e-06 
1.00396e-05 0.000155778 0.000212965 5e-06 
4.99835e-06 0.000197461 0.000216121 5e-06 
3.4097e-05 0.000187197 0.000205 5e-06 
4.38374e-05 0.000189459 0.000204999 5e-06 
5.98248e-05 0.000171382 0.000213127 5e-06 
3.23412e-05 0.000197041 0.000204999 5e-06 
1.84019e-05 0.000194664 0.000209999 1e-05 
4.68246e-05 0.000191665 0.000214283 5e-06 
7.11604e-05 0.00019935 0.000205 5e-06 
3.75381e-05 0.000177803 0.000205 5e-06 
7.23533e-05 0.000183584 0.000212499 1.25e-05 
7.47218e-05 0.000164293 0.000222345 7.5e-06 
5.67584e-05 0.000195062 0.000207499 7.5e-06 
4.35027e-05 0.00020208 0.0002075 7.5e-06 
3.45323e-05 0.000192439 0.000216411 7.5e-06 
3.01556e-05 0.000206799 0.000205 5e-06 
4.91548e-05 0.000166996 0.000213103 5e-06 
7.68147e-05 0.000164741 0.000207499 7.5e-06 
5.07297e-06 0.000200003 0.000205 5e-06 
3.96698e-05 0.00014259 0.000219791 1e-05 
5.28255e-05 0.000203659 0.000215677 5e-06 
4.9997e-06 0.000210133 0.000205 5e-06 
6.57757e-05 0.000204304 0.000215135 7.5e-06 
3.49744e-05 0.00020485 0.000217826 5e-06 
2.3183e-05 0.000207181 0.000221257 7.5e-06 
5.90152e-05 0.000207099 0.000205 5e-06 
7.66533e-05 0.000152495 0.000204999 5e-06 
3.16331e-05 0.000177728 0.000216017 7.5e-06 
4.37618e-05 0.000175516 0.000213961 5e-06 
3.96882e-05 0.000166197 0.000221227 7.5e-06 
7.10666e-05 0.000209357 0.000205 5e-06 
5.50399e-05 0.000167765 0.000221152 5e-06 
7.28772e-05 0.000143236 0.000205 5e-06 
4.99984e-06 0.00015048 0.000219786 5e-06 
9.14504e-06 0.000206055 0.000213134 5e-06 
7.46483e-05 0.000149658 0.00022252 5e-06 
2.25249e-05 0.000184931 0.000220642 5e-06 
5.6917e-05 0.000178996 0.000219353 5e-06 
2.49909e-05 0.000156157 0.000220443 1e-05 
7.83204e-05 0.000154589 0.000214634 5e-06 
4.43336e-05 0.000183661 0.000219735 5e-06 
6.43603e-05 0.000171278 0.000222039 5e-06 
7.77304e-05 0.000144648 0.000213628 5e-06 
1.85969e-05 0.000211983 0.000207499 7.5e-06 
4.83807e-05 0.000175037 0.000222816 5e-06 
4.99987e-06 0.000208628 0.000221863 5e-06 
5.04102e-05 0.000212193 0.000204999 5e-06 
2.45287e-05 0.000194245 0.000223685 5e-06 
3.99617e-05 0.000212408 0.000213584 5e-06 
0.000121681 0.00014277 0.000205 5e-06 
9.27196e-05 0.000143411 0.000205 5e-06 
0.000130236 0.000147947 0.000205 5e-06 
0.00012136 0.000148363 0.000216174 7.5e-06 
0.000115325 0.000150489 0.000205 5e-06 
0.000140012 0.000145843 0.000204999 5e-06 
0.00012388 0.000155666 0.000205 5e-06 
0.000101737 0.000184305 0.000205 5e-06 
9.42278e-05 0.000190908 0.000204999 5e-06 
0.000138648 0.000161595 0.000212499 1.25e-05 
0.000114994 0.000181695 0.000205 5e-06 
9.9774e-05 0.0001505 0.000204999 5e-06 
0.0001229 0.000192183 0.000207499 7.5e-06 
0.000123369 0.000165655 0.000204999 5e-06 
0.00015379 0.000190272 0.000205 5e-06 
0.000104916 0.000159075 0.000204999 5e-06 
0.000109833 0.000190258 0.000205 5e-06 
0.000102289 0.000196821 0.000204998 5e-06 
0.000134623 0.000205305 0.000211297 5e-06 
0.000113209 0.000199671 0.000204999 5e-06 
0.000122866 0.000207202 0.000207499 7.5e-06 
0.000115407 0.000171704 0.000204999 5e-06 
0.000126498 0.000177496 0.000207499 7.5e-06 
0.000133906 0.000197553 0.000205 5e-06 
0.000138744 0.000177406 0.000204999 5e-06 
0.000134235 0.000186997 0.000205 5e-06 
0.000142914 0.000193211 0.000205 5e-06 
0.000146229 0.000183884 0.000206417 5e-06 
0.000132658 0.000189835 0.000218646 7.5e-06 
0.0001212 0.00016053 0.000213315 5e-06 
0.0001528 0.000200223 0.000205 5e-06 
0.000148211 0.000174186 0.000205 5e-06 
9.17496e-05 0.000181221 0.000205 5e-06 
0.000104209 0.000174467 0.000204999 5e-06 
0.000148401 0.000204351 0.000212975 5e-06 
0.00014217 0.000203183 0.000205 5e-06 
8.4888e-05 0.000173949 0.000204999 5e-06 
0.000158187 0.000174862 0.000204998 5e-06 
8.85508e-05 0.0001554 0.000207499 7.5e-06 
0.000110625 0.0001764 0.00021242 5e-06 
0.000108293 0.000166942 0.000210165 5e-06 
0.000114817 0.000160475 0.000205 5e-06 
0.000125262 0.00019982 0.000217297 5e-06 
9.84441e-05 0.000164275 0.000210571 5e-06 
0.000137297 0.000178892 0.000214781 5e-06 
0.000149806 0.000150396 0.000204998 5e-06 
9.93814e-05 0.000154917 0.000213962 5e-06 
0.000117938 0.000169907 0.000214506 5e-06 
0.000124878 0.000209521 0.000219688 5e-06 
0.000118621 0.0001629 0.000222681 5e-06 
9.46172e-05 0.000171643 0.000204999 5e-06 
9.81431e-05 0.000178093 0.000212072 5e-06 
0.000111477 0.000158463 0.000214403 5e-06 
0.000102833 0.000190713 0.000218685 1e-05 
0.000153879 0.000165839 0.000205 5e-06 
0.000107549 0.000149824 0.000211251 5e-06 
0.000157661 0.000156583 0.000204999 5e-06 
8.95203e-05 0.000186954 0.000212884 5e-06 
0.000140847 0.000197832 0.000213623 5e-06 
8.84343e-05 0.000167237 0.000211509 5e-06 
0.000159681 0.000163507 0.000212803 5e-06 
8.2784e-05 0.000144596 0.000205 5e-06 
8.84353e-05 0.000176884 0.00021414 5e-06 
0.000154731 0.00015497 0.000214423 5e-06 
8.61176e-05 0.000204479 0.000212499 1.25e-05 
0.000115904 0.000184614 0.000214571 5e-06 
0.000113483 0.000202807 0.000214491 5e-06 
0.000149158 0.000210334 0.000204999 5e-06 
0.000133895 0.000146745 0.000220443 5e-06 
0.000105003 0.000208761 0.000207499 7.5e-06 
0.000134818 0.000173623 0.000224619 5e-06 
0.000102061 0.000206478 0.000219431 5e-06 
9.05084e-05 0.000182803 0.000221927 5e-06 
0.000110177 0.000202749 0.000223928 5e-06 
0.000120377 0.000191584 0.000220174 5e-06 
0.00015079 0.000206278 0.000222492 5e-06 
0.000110084 0.000150981 0.00022089 5e-06 
0.000123418 0.000178126 0.000222165 7.5e-06 
8.79066e-05 0.000157142 0.000222382 7.5e-06 
0.000138022 0.00021229 0.000205 5e-06 
0.000235 0.000142678 0.000214767 5e-06 
0.000162776 0.000194659 0.000205 5e-06 
0.000173859 0.00014428 0.00022234 5e-06 
0.000217612 0.000163869 0.000218565 5e-06 
0.000235001 0.000144819 0.000204999 5e-06 
0.000180791 0.000142012 0.000205 5e-06 
0.000216711 0.000146964 0.000205 5e-06 
0.000226308 0.000149774 0.000205 5e-06 
0.000171158 0.000152366 0.000209999 1e-05 
0.000185256 0.000153471 0.000204999 5e-06 
0.000194868 0.000150716 0.000204999 5e-06 
0.000187333 0.000172595 0.000212727 5e-06 
0.000180896 0.000162621 0.000204999 5e-06 
0.000175742 0.000181479 0.000205 5e-06 
0.000223072 0.000161879 0.000207499 7.5e-06 
0.000181 0.000172974 0.000204999 5e-06 
0.000193141 0.00016284 0.000207499 7.5e-06 
0.000235001 0.000174816 0.000204999 5e-06 
0.000223132 0.000177829 0.000207499 7.5e-06 
0.000211989 0.000156667 0.000205 5e-06 
0.000203111 0.00017404 0.000205 5e-06 
0.000185737 0.00018178 0.000205 5e-06 
0.000193167 0.000175088 0.000204999 5e-06 
0.000235 0.000184817 0.000204999 5e-06 
0.000200998 0.000176522 0.000217067 7.5e-06 
0.000169234 0.000169578 0.0002075 7.5e-06 
0.000209472 0.000184507 0.000207499 7.5e-06 
0.000212741 0.000171347 0.000204999 5e-06 
0.000197228 0.000184225 0.000204999 5e-06 
0.000234999 0.000154818 0.000205 5e-06 
0.000205834 0.000148786 0.000205 5e-06 
0.0001907 0.000182717 0.00021363 5e-06 
0.000203447 0.000198508 0.0002075 7.5e-06 
0.000189245 0.000193513 0.0002075 7.5e-06 
0.000235 0.000164817 0.000205 5e-06 
0.000225 0.000198959 0.000214998 1.5e-05 
0.00020559 0.000164352 0.000205 5e-06 
0.0002325 0.000169537 0.0002163 7.5e-06 
0.000179561 0.000187202 0.000212257 5e-06 
0.000235001 0.000181648 0.000214483 5e-06 
0.000199421 0.000188478 0.00021378 5e-06 
0.00017751 0.000176692 0.000213601 5e-06 
0.000180447 0.000202155 0.000212154 5e-06 
0.00017485 0.000197974 0.000205 5e-06 
0.000165743 0.000181413 0.000204999 5e-06 
0.000231957 0.00015457 0.000217123 7.5e-06 
0.000206767 0.000207125 0.000215924 5e-06 
0.00017069 0.000189478 0.000208241 5e-06 
0.000209648 0.000167377 0.000213639 5e-06 
0.000207944 0.00018929 0.000218946 5e-06 
0.000234659 0.000182044 0.000224469 5e-06 
0.000203403 0.000156532 0.000210837 5e-06 
0.000179452 0.000166587 0.000214064 5e-06 
0.00019902 0.000143262 0.000210213 5e-06 
0.000200928 0.000164022 0.000217203 5e-06 
0.000215388 0.000179298 0.000220261 7.5e-06 
0.000188775 0.000149717 0.000219087 1e-05 
0.00019017 0.000208484 0.000207499 7.5e-06 
0.000164969 0.000210318 0.000212499 1.25e-05 
0.000171187 0.00016423 0.000219175 5e-06 
0.000235 0.000145012 0.000224582 5e-06 
0.00021055 0.000208515 0.000205 5e-06 
0.000162127 0.000156221 0.000224483 7.5e-06 
0.000212785 0.00014541 0.00022456 1.5e-05 
5.04203e-05 0.000250054 0.000205 5e-06 
5.87197e-05 0.000241046 0.0002075 7.5e-06 
4.6042e-05 0.000225643 0.00021 1e-05 
7.49902e-06 0.000222123 0.000207499 7.5e-06 
1.15857e-05 0.000253355 0.00021322 5e-06 
5.08783e-06 0.000244113 0.000204999 5e-06 
5.00122e-06 0.000254168 0.000205 5e-06 
7.70124e-05 0.000217466 0.000205 5e-06 
2.58577e-05 0.000247198 0.000205 5e-06 
5.28926e-05 0.000260187 0.000205 5e-06 
3.36853e-05 0.000237779 0.000207498 7.5e-06 
4.99935e-06 0.000234112 0.000204999 5e-06 
6.67994e-05 0.000253683 0.000207499 7.5e-06 
3.59442e-05 0.000215588 0.000204999 5e-06 
1.71454e-05 0.000237318 0.000213195 1e-05 
6.30881e-05 0.000218649 0.0002075 7.5e-06 
6.59404e-05 0.00026591 0.000204999 5e-06 
2.33433e-05 0.000257387 0.00021179 7.5e-06 
7.55385e-05 0.000263107 0.000204998 5e-06 
4.32573e-05 0.000257507 0.000205 5e-06 
4.99938e-06 0.000245966 0.000214825 5e-06 
6.7813e-05 0.000275732 0.000204999 5e-06 
4.65393e-05 0.000239775 0.000204999 5e-06 
4.9997e-06 0.000229514 0.000217265 5e-06 
4.99975e-06 0.000260871 0.000213577 5e-06 
1.60586e-05 0.000249833 0.000204999 5e-06 
2.72626e-05 0.000224225 0.000207499 7.5e-06 
6.98852e-05 0.000262782 0.000219018 7.5e-06 
1.31418e-05 0.000259983 0.000205 5e-06 
4.06483e-05 0.000247854 0.000204999 5e-06 
3.35327e-05 0.000254879 0.000204999 5e-06 
5.95317e-05 0.000262794 0.000212014 5e-06 
1.65458e-05 0.000269389 0.000205 5e-06 
3.58803e-05 0.00026962 0.000213608 5e-06 
3.61202e-05 0.000264538 0.000205 5e-06 
6.13904e-05 0.000229942 0.000217224 7.5e-06 
4.99994e-06 0.000270268 0.000216996 5e-06 
4.99996e-06 0.000266012 0.000205 5e-06 
1.38685e-05 0.000262381 0.00022229 7.5e-06 
4.54813e-05 0.00026668 0.000208299 5e-06 
6.62768e-05 0.00027395 0.000214718 5e-06 
5.57188e-05 0.000273807 0.000207498 7.5e-06 
6.52962e-05 0.000230696 0.000205 5e-06 
4.99929e-06 0.000277893 0.000223818 5e-06 
3.37988e-05 0.000274264 0.000205 5e-06 
7.09248e-05 0.000240008 0.000205 5e-06 
4.36569e-05 0.000275942 0.000205 5e-06 
7.50922e-05 0.000271151 0.00021092 5e-06 
3.0015e-05 0.000213192 0.000212688 5e-06 
2.65278e-05 0.000267387 0.000205 5e-06 
2.71251e-05 0.000267566 0.000217981 5e-06 
7.68106e-05 0.000241994 0.000221361 1.25e-05 
7.46671e-05 0.000227188 0.000205 5e-06 
7.77099e-05 0.000248124 0.000204997 5e-06 
5.39288e-05 0.000213497 0.000214268 5e-06 
2.61224e-05 0.000275044 0.000211418 5e-06 
1.10914e-05 0.000215012 0.000217131 5e-06 
5.78344e-05 0.000271903 0.000219669 5e-06 
4.49781e-05 0.00027733 0.000217356 7.5e-06 
1.6622e-05 0.000276827 0.000219345 7.5e-06 
7.69759e-05 0.000279734 0.000204999 5e-06 
1.77524e-05 0.000250397 0.000220515 5e-06 
1.74595e-05 0.000222435 0.000215042 5e-06 
2.74181e-05 0.000220202 0.000219332 5e-06 
1.97914e-05 0.000279711 0.000205 5e-06 
5.5332e-05 0.000280827 0.000223422 5e-06 
7.4989e-06 0.000278002 0.000207499 7.5e-06 
3.09565e-05 0.000280682 0.000221492 7.5e-06 
3.6312e-05 0.000224312 0.000221338 5e-06 
3.01313e-05 0.000231166 0.000217492 5e-06 
7.90014e-05 0.000256062 0.000211189 5e-06 
4.99929e-06 0.000253636 0.00022124 5e-06 
8.23986e-05 0.000239288 0.000205 5e-06 
0.000148396 0.000214062 0.000216689 5e-06 
0.000140286 0.000227859 0.000217252 5e-06 
9.8616e-05 0.000216483 0.000214971 5e-06 
8.31208e-05 0.000271845 0.000204999 5e-06 
8.88001e-05 0.000226678 0.000209999 1e-05 
8.96791e-05 0.000250711 0.000207499 7.5e-06 
0.000104096 0.000235571 0.000216535 7.5e-06 
9.44481e-05 0.000266667 0.000204999 5e-06 
9.46893e-05 0.000239535 0.000205 5e-06 
0.000128028 0.000242397 0.000205 5e-06 
0.000130479 0.000252092 0.000205 5e-06 
0.000139096 0.000240057 0.000204999 5e-06 
0.000116931 0.000228992 0.000204999 5e-06 
0.00012764 0.000218479 0.000204998 5e-06 
0.000111044 0.000244714 0.000211597 5e-06 
0.000109576 0.000235949 0.000205 5e-06 
0.0001339 0.00021722 0.000215743 7.5e-06 
0.000111654 0.000263435 0.000205 5e-06 
0.00012274 0.000248891 0.000214281 7.5e-06 
0.000140434 0.000250115 0.000212298 7.5e-06 
0.000118385 0.000256041 0.000204999 5e-06 
0.000118038 0.000241963 0.000205 5e-06 
0.000121926 0.000235098 0.000211144 5e-06 
0.000150455 0.000251711 0.000205 5e-06 
0.000105869 0.000223734 0.000207498 7.5e-06 
0.000152279 0.000232333 0.000205 5e-06 
0.000103548 0.000244174 0.000205 5e-06 
0.000132587 0.000229683 0.000207499 7.5e-06 
0.000142669 0.000260013 0.000204999 5e-06 
0.000109014 0.000252548 0.000205 5e-06 
0.000103943 0.000269801 0.000205 5e-06 
0.000143331 0.000260169 0.000219137 5e-06 
0.000128924 0.000267828 0.000212499 1.25e-05 
0.000148938 0.000241827 0.000204999 5e-06 
0.000149487 0.000267337 0.000205 5e-06 
0.000149982 0.000259071 0.000211752 5e-06 
0.000146307 0.000268469 0.000214412 5e-06 
0.000145477 0.000222014 0.000207498 7.5e-06 
0.000144659 0.000234439 0.000211123 5e-06 
0.000157451 0.000247781 0.000210968 5e-06 
0.000122351 0.000223801 0.000211607 5e-06 
0.00010228 0.000259941 0.000204999 5e-06 
0.00015503 0.000273116 0.000212138 5e-06 
0.000112556 0.000276986 0.000214114 5e-06 
0.000131842 0.000240328 0.000214009 5e-06 
0.000114383 0.00022858 0.000215303 5e-06 
8.5729e-05 0.00026257 0.000207675 5e-06 
0.000153993 0.000264317 0.000219276 5e-06 
9.32118e-05 0.000241585 0.000215274 5e-06 
0.000117401 0.000218161 0.000204999 5e-06 
0.000154887 0.000228852 0.00022057 1e-05 
0.000114035 0.000273147 0.000205 5e-06 
9.20316e-05 0.000276382 0.000205 5e-06 
0.000144902 0.000278786 0.000207499 7.5e-06 
0.000149565 0.000276123 0.000219962 5e-06 
0.000150327 0.000241969 0.0002149 5e-06 
0.000114399 0.00021573 0.000216886 7.5e-06 
8.49201e-05 0.000280221 0.000217711 1e-05 
0.000143473 0.00021955 0.000223445 5e-06 
8.20175e-05 0.000264716 0.000216709 5e-06 
0.000159061 0.000224985 0.000205 5e-06 
0.000152793 0.000252125 0.000221756 7.5e-06 
9.95876e-05 0.000276077 0.000211542 5e-06 
0.00014087 0.000239156 0.000222574 7.5e-06 
0.000106323 0.000279513 0.000204999 5e-06 
9.16633e-05 0.000218107 0.000221972 5e-06 
9.9287e-05 0.000224754 0.00022055 5e-06 
9.30095e-05 0.000234354 0.000222179 5e-06 
0.000133399 0.000282992 0.000204999 5e-06 
0.000126024 0.000230139 0.000224695 1e-05 
0.000132674 0.000252587 0.000224895 7.5e-06 
0.0001562 0.000283607 0.000204999 5e-06 
0.000160244 0.000283479 0.000216825 7.5e-06 
0.000161001 0.000263163 0.000207499 7.5e-06 
0.000164585 0.000251451 0.000205 5e-06 
0.00016188 0.000275378 0.000205 5e-06 
0.000199062 0.000213441 0.000214753 5e-06 
0.000188215 0.000216748 0.000216671 5e-06 
0.000170288 0.000253474 0.000218729 1e-05 
0.00020043 0.000215172 0.000204999 5e-06 
0.000208144 0.000215894 0.00021132 5e-06 
0.000234997 0.000216631 0.000214356 5e-06 
0.000235 0.000213102 0.000205 5e-06 
0.000221202 0.000223156 0.000209998 1e-05 
0.000201705 0.000246098 0.000205 5e-06 